# vtk DataFile Version 2.0
Sampled points
ASCII
DATASET UNSTRUCTURED_GRID
POINTS 1720 double
-1.883110242263841792e+04 1.309620187365567836e+05 -5.000000000000000000e+02
-1.879839340075167638e+04 1.309743320949567133e+05 -1.500000000000000000e+03
-1.876568444990301214e+04 1.309866455468312779e+05 -2.500000000000000000e+03
-1.873297532749025413e+04 1.309989588147903414e+05 -3.500000000000000000e+03
-1.870026651871965078e+04 1.310112724536148162e+05 -4.500000000000000000e+03
-1.866755778098643714e+04 1.310235861859152792e+05 -5.500000000000000000e+03
-1.863484887168592832e+04 1.310358997343043739e+05 -6.500000000000000000e+03
-1.860214051956351614e+04 1.310482133769634529e+05 -7.500000000000000000e+03
-1.856943223802344801e+04 1.310605273900876346e+05 -8.500000000000000000e+03
-1.853672354137819639e+04 1.310728414958991925e+05 -9.500000000000000000e+03
-1.918851026560988248e+04 1.319009213414087426e+05 -5.000000000000000000e+02
-1.915577183167750627e+04 1.319131496992067550e+05 -1.500000000000000000e+03
-1.912303371144061384e+04 1.319253781510839472e+05 -2.500000000000000000e+03
-1.909029517620975821e+04 1.319376064188281307e+05 -3.500000000000000000e+03
-1.905755695423457291e+04 1.319498350576304365e+05 -4.500000000000000000e+03
-1.902481904548607417e+04 1.319620640674990718e+05 -5.500000000000000000e+03
-1.899208072220878967e+04 1.319742926162528165e+05 -6.500000000000000000e+03
-1.895934271264306517e+04 1.319865212590777664e+05 -7.500000000000000000e+03
-1.892660501631324223e+04 1.319987502729690168e+05 -8.500000000000000000e+03
-1.889386690453271513e+04 1.320109793797257007e+05 -9.500000000000000000e+03
-1.954585850868507987e+04 1.328398366338351334e+05 -5.000000000000000000e+02
-1.951309067369484546e+04 1.328519799884453532e+05 -1.500000000000000000e+03
-1.948032315201345409e+04 1.328641234373275656e+05 -2.500000000000000000e+03
-1.944755545755369167e+04 1.328762669796606642e+05 -3.500000000000000000e+03
-1.941478783335808839e+04 1.328884106158560317e+05 -4.500000000000000000e+03
-1.938202052247674510e+04 1.329005543463228096e+05 -5.500000000000000000e+03
-1.934925303928391440e+04 1.329126978932561760e+05 -6.500000000000000000e+03
-1.931648562588010464e+04 1.329248418110416387e+05 -7.500000000000000000e+03
-1.928371852577989557e+04 1.329369858230990358e+05 -8.500000000000000000e+03
-1.925095125290302531e+04 1.329491299286141875e+05 -9.500000000000000000e+03
-1.990314737260679249e+04 1.337787643435009522e+05 -5.000000000000000000e+02
-1.987035039012592097e+04 1.337908229697336792e+05 -1.500000000000000000e+03
-1.983755347752265516e+04 1.338028816900209349e+05 -2.500000000000000000e+03
-1.980475639228017826e+04 1.338149402269482380e+05 -3.500000000000000000e+03
-1.977195937691273139e+04 1.338269988579320488e+05 -4.500000000000000000e+03
-1.973916267489668098e+04 1.338390573064086784e+05 -5.500000000000000000e+03
-1.970636604275595892e+04 1.338511158489424852e+05 -6.500000000000000000e+03
-1.967356923653189006e+04 1.338631750390864909e+05 -7.500000000000000000e+03
-1.964077250018295308e+04 1.338752343232894782e+05 -8.500000000000000000e+03
-1.960797607719203370e+04 1.338872934249845275e+05 -9.500000000000000000e+03
-2.026037707667369614e+04 1.347177050310380873e+05 -5.000000000000000000e+02
-2.022755071518532714e+04 1.347296786488865328e+05 -1.500000000000000000e+03
-2.019472466616818929e+04 1.347416523614184698e+05 -2.500000000000000000e+03
-2.016189820113818496e+04 1.347536258903506387e+05 -3.500000000000000000e+03
-2.012907180559464177e+04 1.347655995135324192e+05 -4.500000000000000000e+03
-2.009624572253830047e+04 1.347775732313901244e+05 -5.500000000000000000e+03
-2.006341970896827115e+04 1.347895470434990712e+05 -6.500000000000000000e+03
-2.003059352139965995e+04 1.348015212264248694e+05 -7.500000000000000000e+03
-1.999776740331697511e+04 1.348134955036035099e+05 -8.500000000000000000e+03
-1.996494184118281191e+04 1.348254695988982567e+05 -9.500000000000000000e+03
-2.061754735556276864e+04 1.356566584252752946e+05 -5.000000000000000000e+02
-2.058469138310975904e+04 1.356685470317055297e+05 -1.500000000000000000e+03
-2.055183596570080044e+04 1.356804357334566012e+05 -2.500000000000000000e+03
-2.051898037490728530e+04 1.356923242522278160e+05 -3.500000000000000000e+03
-2.048612485320999258e+04 1.357042128654421540e+05 -4.500000000000000000e+03
-2.045326940010553517e+04 1.357161018500915379e+05 -5.500000000000000000e+03
-2.042041401609757668e+04 1.357279909291854710e+05 -6.500000000000000000e+03
-2.038755870168363253e+04 1.357398798257366288e+05 -7.500000000000000000e+03
-2.035470321340345254e+04 1.357517688162968552e+05 -8.500000000000000000e+03
-2.032184803669960456e+04 1.357636581787240575e+05 -9.500000000000000000e+03
-2.097465818597429461e+04 1.365956248094238399e+05 -5.000000000000000000e+02
-2.094177309953379154e+04 1.366074284027197573e+05 -1.500000000000000000e+03
-2.090888808181863351e+04 1.366192320906464593e+05 -2.500000000000000000e+03
-2.087600313331062716e+04 1.366310355962222966e+05 -3.500000000000000000e+03
-2.084311825350605068e+04 1.366428391964368639e+05 -4.500000000000000000e+03
-2.081023344190291027e+04 1.366546431682813854e+05 -5.500000000000000000e+03
-2.077734894194512526e+04 1.366664472352120210e+05 -6.500000000000000000e+03
-2.074446451118998448e+04 1.366782511197937129e+05 -7.500000000000000000e+03
-2.071157966323480650e+04 1.366900550981332781e+05 -8.500000000000000000e+03
-2.067869488348344021e+04 1.367018594481050677e+05 -9.500000000000000000e+03
-2.133170954566600994e+04 1.375346039127123076e+05 -5.000000000000000000e+02
-2.129879535679801847e+04 1.375463222132823139e+05 -1.500000000000000000e+03
-2.126588099277591391e+04 1.375580408852236578e+05 -2.500000000000000000e+03
-2.123296669706502871e+04 1.375697596519993676e+05 -3.500000000000000000e+03
-2.120005222726321517e+04 1.375814782361636171e+05 -4.500000000000000000e+03
-2.116713806817533987e+04 1.375931971926094266e+05 -5.500000000000000000e+03
-2.113422422033920884e+04 1.376049162443375099e+05 -6.500000000000000000e+03
-2.110131044133058822e+04 1.376166351139108592e+05 -7.500000000000000000e+03
-2.106839648717366435e+04 1.376283543548651214e+05 -8.500000000000000000e+03
-2.103548260132581345e+04 1.376400736906560196e+05 -9.500000000000000000e+03
-2.168870141290110769e+04 1.384735951873740705e+05 -5.000000000000000000e+02
-2.165575764625793454e+04 1.384852284687024367e+05 -1.500000000000000000e+03
-2.162281394647886918e+04 1.384968623990381020e+05 -2.500000000000000000e+03
-2.158987055804980264e+04 1.385084961478782934e+05 -3.500000000000000000e+03
-2.155692699513624757e+04 1.385201297143015545e+05 -4.500000000000000000e+03
-2.152398374254114970e+04 1.385317636532001197e+05 -5.500000000000000000e+03
-2.149104031496082462e+04 1.385433976866678568e+05 -6.500000000000000000e+03
-2.145809695528761949e+04 1.385550318151664105e+05 -7.500000000000000000e+03
-2.142515390644090439e+04 1.385666660391589976e+05 -8.500000000000000000e+03
-2.139221092550936010e+04 1.385783003581832745e+05 -9.500000000000000000e+03
-2.204563376336362853e+04 1.394125994705817720e+05 -5.000000000000000000e+02
-2.201266067239667245e+04 1.394241480075106083e+05 -1.500000000000000000e+03
-2.197968764842156452e+04 1.394356969166539493e+05 -2.500000000000000000e+03
-2.194671493593919149e+04 1.394472453675060533e+05 -3.500000000000000000e+03
-2.191374229097865827e+04 1.394587939135832130e+05 -4.500000000000000000e+03
-2.188076971300031437e+04 1.394703428318763035e+05 -5.500000000000000000e+03
-2.184779695964168059e+04 1.394818918449338234e+05 -6.500000000000000000e+03
-2.181482427327839832e+04 1.394934412302086712e+05 -7.500000000000000000e+03
-2.178185189786339470e+04 1.395049904341829824e+05 -8.500000000000000000e+03
-2.174887958996899397e+04 1.395165397333857254e+05 -9.500000000000000000e+03
-2.240250633195804403e+04 1.403516164910638472e+05 -5.000000000000000000e+02
-2.236950417114674929e+04 1.403630800044703064e+05 -1.500000000000000000e+03
-2.233650207746063097e+04 1.403745436132960313e+05 -2.500000000000000000e+03
-2.230350005089131446e+04 1.403860073175427970e+05 -3.500000000000000000e+03
-2.227049784858521525e+04 1.403974711167314090e+05 -4.500000000000000000e+03
-2.223749595627475355e+04 1.404089350118207803e+05 -5.500000000000000000e+03
-2.220449413108910448e+04 1.404203990023331135e+05 -6.500000000000000000e+03
-2.217149212962309684e+04 1.404318633647820679e+05 -7.500000000000000000e+03
-2.213849043814335892e+04 1.404433278231316071e+05 -8.500000000000000000e+03
-2.210548881433210045e+04 1.404547920999152120e+05 -9.500000000000000000e+03
-2.275931933934483095e+04 1.412906459784980980e+05 -5.000000000000000000e+02
-2.272628811971165851e+04 1.413020244657894364e+05 -1.500000000000000000e+03
-2.269325672396235313e+04 1.413134030482070521e+05 -2.500000000000000000e+03
-2.266022539439575121e+04 1.413247820032325399e+05 -3.500000000000000000e+03
-2.262719413153678761e+04 1.413361610538839013e+05 -4.500000000000000000e+03
-2.259416293597275217e+04 1.413475399231551855e+05 -5.500000000000000000e+03
-2.256113180713526162e+04 1.413589188880454458e+05 -6.500000000000000000e+03
-2.252810074446189537e+04 1.413702982255536481e+05 -7.500000000000000000e+03
-2.249506974853493375e+04 1.413816776586737251e+05 -8.500000000000000000e+03
-2.246203881987946806e+04 1.413930569104240276e+05 -9.500000000000000000e+03
-2.311607300452570053e+04 1.422296884935349517e+05 -5.000000000000000000e+02
-2.308301249372836901e+04 1.422409822286107519e+05 -1.500000000000000000e+03
-2.304995180698363765e+04 1.422522757820188126e+05 -2.500000000000000000e+03
-2.301689118656955907e+04 1.422635694312400301e+05 -3.500000000000000000e+03
-2.298383087476122455e+04 1.422748634537550970e+05 -4.500000000000000000e+03
-2.295077038644172717e+04 1.422861575715984800e+05 -5.500000000000000000e+03
-2.291770996445148921e+04 1.422974517852569115e+05 -6.500000000000000000e+03
-2.288464985219473238e+04 1.423087458182251721e+05 -7.500000000000000000e+03
[...]
POINT_DATA 1720
SCALARS fault_number int
LOOKUP_TABLE default
1
1
1
1
1
1
1
1
1
1
1
1
1
1
1
1
1
1
1
1
1
1
1
1
1
1
1
1
1
1
1
1
1
1
1
1
1
1
1
1
1
1
1
1
1
1
1
1
1
1
1
1
1
1
1
1
1
1
1
1
1
1
1
1
1
1
1
1
1
1
1
1
1
1
1
1
1
1
1
1
1
1
1
1
1
1
1
1
1
1
1
1
1
1
1
1
1
1
1
1
1
1
1
1
1
1
1
1
1
1
1
1
1
1
1
1
1
1
1
1
1
1
1
1
1
1
1
1
1
1
1
1
1
1
1
1
1
1
1
1
1
1
1
1
1
1
1
1
1
1
1
1
1
1
1
1
1
1
1
1
1
1
1
1
1
1
1
1
1
1
1
1
1
1
1
1
1
1
1
1
1
1
1
1
1
1
1
1
1
1
1
1
1
1
1
1
1
1
1
1
1
1
1
1
1
1
1
1
1
1
1
1
1
1
1
1
1
1
1
1
1
1
1
1
1
1
1
1
1
1
1
1
1
1
1
1
1
1
1
1
1
1
1
1
1
1
1
1
1
1
1
1
1
1
1
1
1
1
1
1
1
1
1
1
1
1
1
1
1
1
1
1
1
1
1
1
1
1
1
1
1
1
1
1
1
1
1
1
1
1
1
1
1
1
1
1
1
1
1
1
1
1
1
1
1
1
1
1
1
1
1
1
1
1
1
1
1
1
1
1
1
1
1
1
1
1
1
1
1
1
1
1
1
1
1
1
1
1
1
1
1
1
1
1
1
1
1
1
1
1
1
1
1
1
1
1
1
1
1
1
1
1
1
1
1
1
1
1
1
1
1
1
1
1
1
1
1
1
1
1
1
1
1
1
1
1
1
1
1
1
1
1
1
1
1
1
1
1
1
1
1
1
1
1
1
1
1
1
1
1
1
1
1
1
1
1
1
1
1
1
1
1
1
1
1
1
1
1
1
1
1
1
1
1
1
1
1
1
1
1
1
1
1
1
1
1
1
1
1
1
1
1
1
1
1
1
1
1
1
1
1
1
1
1
1
1
1
1
1
1
1
1
1
1
1
1
1
1
1
1
1
1
1
1
1
1
1
1
1
1
1
1
1
1
1
1
1
1
1
1
1
1
1
1
1
1
1
1
1
1
1
1
1
1
1
1
1
1
1
1
1
1
1
1
1
1
1
1
1
1
1
1
1
1
1
1
1
1
1
1
1
1
1
1
1
1
1
1
1
1
1
1
1
1
1
1
1
1
1
1
1
1
1
1
1
1
1
1
1
1
1
1
1
1
1
1
1
1
1
1
1
1
1
1
1
1
1
1
1
1
1
1
1
1
1
1
1
1
1
1
1
1
1
1
1
1
1
1
1
1
1
1
1
1
1
1
1
1
1
1
1
1
1
1
1
1
1
1
1
1
1
1
1
1
1
1
1
1
1
1
1
1
1
1
1
1
1
1
1
1
1
1
1
1
1
1
1
1
1
1
1
1
1
1
1
1
1
1
1
1
1
1
1
1
1
1
1
1
1
1
1
1
1
1
1
1
1
1
1
1
1
1
1
1
1
1
1
1
1
1
1
1
1
1
1
1
1
1
1
1
1
1
1
1
1
1
1
1
1
1
1
1
1
1
1
1
1
1
1
1
1
1
1
1
1
1
1
1
1
1
1
1
1
1
1
1
1
1
1
1
1
1
1
1
1
1
1
1
1
1
1
1
1
1
1
1
1
1
1
1
1
1
1
1
1
1
1
1
1
1
1
1
1
1
1
1
1
1
1
1
1
1
1
1
1
1
1
1
1
1
1
1
1
1
1
1
1
1
1
1
1
1
1
1
1
1
1
1
1
1
1
1
1
1
1
1
1
1
1
1
1
1
1
1
1
1
1
1
1
1
1
1
1
1
1
1
1
1
1
1
1
1
1
1
1
1
1
1
1
1
1
1
1
1
1
1
1
1
1
1
1
1
1
1
1
1
1
1
1
1
1
1
1
1
1
1
1
1
1
1
1
1
1
1
1
1
1
1
1
1
1
1
1
1
1
1
1
1
1
1
1
1
1
1
1
1
1
1
1
1
1
1
1
1
1
1
1
1
1
1
1
1
1
1
1
1
1
1
1
1
1
1
1
1
1
1
1
1
1
1
1
1
1
1
1
1
1
1
1
1
1
1
1
1
1
1
1
1
1
1
1
1
1
1
1
1
1
1
1
1
1
1
1
1
1
1
1
1
1
1
1
1
1
1
1
1
1
1
1
1
1
1
1
1
1
1
1
1
1
1
1
1
1
1
1
1
1
1
1
1
1
1
1
1
1
1
1
1
1
1
1
1
1
1
1
1
1
1
1
1
1
1
1
1
1
1
1
1
1
1
1
1
1
1
1
1
1
1
1
1
1
1
1
1
1
1
1
1
1
1
1
1
1
1
1
1
1
1
1
1
1
1
1
1
1
1
1
1
1
1
1
1
1
1
1
1
1
1
1
1
1
1
1
1
1
1
1
1
1
1
1
1
1
1
1
1
1
1
1
1
1
1
1
1
1
1
1
1
1
1
1
1
1
1
1
1
1
1
1
1
1
1
1
1
1
1
1
1
1
1
1
1
1
1
1
1
1
1
1
1
1
1
1
1
1
1
1
1
1
1
1
1
1
1
1
1
1
1
1
1
1
1
1
1
1
1
1
1
1
1
1
1
1
1
1
1
1
1
1
1
1
1
1
1
1
1
1
1
1
1
1
1
1
1
1
1
1
1
1
1
1
1
1
1
1
1
1
1
1
1
1
1
1
1
1
1
1
1
1
1
1
1
1
1
1
1
1
1
1
1
1
1
1
1
1
1
1
1
1
1
1
1
1
1
1
1
1
1
1
1
1
1
1
1
1
1
1
1
1
1
1
1
1
1
1
1
1
1
1
1
1
1
1
1
1
1
1
1
1
1
1
1
1
1
1
1
1
1
1
1
1
1
1
1
1
1
1
1
1
1
1
1
1
1
1
1
1
1
1
1
1
1
1
1
1
1
1
1
1
1
1
1
1
1
1
1
1
1
1
1
1
1
1
1
1
1
1
1
1
1
1
1
1
1
1
1
1
1
1
1
1
1
1
1
1
1
1
1
1
1
1
1
1
1
1
1
1
1
1
1
1
1
1
1
1
1
1
1
1
1
1
1
1
1
1
1
1
1
1
1
1
1
1
1
1
1
1
1
1
1
1
1
1
1
1
1
1
1
1
1
1
1
1
1
1
1
1
1
1
1
1
1
1
1
1
1
1
1
1
1
1
1
1
1
1
1
1
1
1
1
1
1
1
1
1
1
1
1
1
1
1
1
1
1
1
1
1
1
1
1
1
1
1
1
1
1
1
1
1
1
1
1
1
1
1
1
1
1
1
1
1
1
1
1
1
1
1
1
1
1
1
1
1
1
1
1
1
1
1
1
1
1
1
1
1
1
1
1
1
1
1
1
1
1
1
1
1
1
1
1
1
1
1
1
1
1
1
1
1
1
1
1
1
1
1
1
1
1
1
1
1
1
1
1
1
1
1
1
1
1
1
1
1
1
1
1
1
1
1
1
1
1
1
1
1
1
1
1
1
1
1
1
1
1
1
1
1
1
1
1
1
1
1
1
1
1
1
1
1
1
1
1
1
1
1
1
1
1
1
1
1
1
1
1
1
1
1
1
1
1
1
1
1
1
1
1
1
1
1
1
1
1
1
1
1
1
1
1
1
1
1
1
1
1
1
1
1
1
1
1
1
1
1
1
1
1
1
1
1
1
1
1
1
1
1
1
1
1
1
1
1
1
1
1
1
1
1
1
1
1
1
1
1
1
1
1
1
1
1
1
1
1
1
1
1
1
1
1
1
1
1
1
1
1
1
1
1
1
1
1
SCALARS effective_shear_modulus float
LOOKUP_TABLE default
2.206329449076063919e+10
2.576508681083979034e+10
2.890533194305868530e+10
3.130611279385813141e+10
3.302367810793501282e+10
3.398206546316674805e+10
3.455255126960975647e+10
3.472372409762015533e+10
3.490489429790686798e+10
3.509584338549907684e+10
2.191292440681204224e+10
2.562627547474329376e+10
2.878690993113654327e+10
3.121617835277101517e+10
3.295623457671073914e+10
3.392910807688555145e+10
3.449811855616385651e+10
3.465139298740125275e+10
3.481620283444443512e+10
3.499230340959564209e+10
2.175534850646030807e+10
2.547943205397011948e+10
2.865994512186539078e+10
3.111756036428301239e+10
3.288039264809905243e+10
3.386843956639341736e+10
3.443654835044747925e+10
3.457236459975409698e+10
3.472152756721424866e+10
3.488376739432362366e+10
2.159066817722349548e+10
2.532464655349611282e+10
2.852451138610855865e+10
3.101031309684006882e+10
3.279619102215613937e+10
3.380008777159728622e+10
3.436786620462770081e+10
3.448666911398776245e+10
3.462090058783113861e+10
3.477026635842481232e+10
2.141898928476280975e+10
2.516201390868656158e+10
2.838068758615206528e+10
3.089449541126165390e+10
3.270367249406120682e+10
3.372408391979074478e+10
3.429210053347500610e+10
3.439433921884442139e+10
3.451435604870504761e+10
3.465183281611179352e+10
2.124042240727550507e+10
2.499163383828438950e+10
2.822855744913707733e+10
3.077017081340772629e+10
3.260288396710726166e+10
3.364046268192519760e+10
3.420928267918266678e+10
3.429541017105052948e+10
3.440193017512351227e+10
3.452850075386820221e+10
2.105508250796372986e+10
2.481361056302441788e+10
2.806820919210886765e+10
3.063740724819623947e+10
3.249387641678990936e+10
3.354926209435857773e+10
3.411944682977350998e+10
3.418991970445281219e+10
3.428366109084914780e+10
3.440030550954957581e+10
2.086308905764447784e+10
2.462805331995335007e+10
2.789973595256661606e+10
3.049627720943344116e+10
3.237670483411426926e+10
3.345052349913491440e+10
3.402263000801533890e+10
3.407790810334323120e+10
3.415958901571822739e+10
3.426728383916632843e+10
2.066544016354670334e+10
2.443738313983783340e+10
2.772672239914364243e+10
3.035101233631522751e+10
3.225598272342269897e+10
3.334914113321246719e+10
3.392488733946026230e+10
3.396796602352592850e+10
3.404124284107987213e+10
3.414433635764198685e+10
2.069477300569879150e+10
2.447150246669729233e+10
2.776278004095473480e+10
3.038553349969600296e+10
3.228955589817498398e+10
3.338271756450788116e+10
3.395811324513979721e+10
3.400072568695303345e+10
3.407760381140485001e+10
3.418840612178608704e+10
2.074002407850996399e+10
2.452050630615354538e+10
2.781188575678203964e+10
3.043066703093200302e+10
3.233162830631674957e+10
3.342298284953436279e+10
3.399686474913150787e+10
3.403833296719250870e+10
3.411797035487934113e+10
3.423547409083184052e+10
2.079307499937009048e+10
2.457781390965954971e+10
2.786927558695453644e+10
3.048348333213911438e+10
3.238069286008809662e+10
3.346950557994272232e+10
3.404115422683440781e+10
3.408079795255939484e+10
3.416235088697355652e+10
3.428554713112557983e+10
2.085396165187081528e+10
2.464346100667636490e+10
2.793498170855190277e+10
3.054400820810609818e+10
3.243677047765746689e+10
3.352230299468082428e+10
3.409099577583866882e+10
3.412813201642498779e+10
3.421075469914184189e+10
3.433863260074074554e+10
2.092272491935483551e+10
2.471748806512740326e+10
2.800904058959120560e+10
3.061227104912203598e+10
3.249988499075985718e+10
3.358139455711898041e+10
3.414640513003932953e+10
3.418034779441729355e+10
3.426319194779193878e+10
3.439473826369270325e+10
2.099941070478947830e+10
2.479994052590687561e+10
2.809149330157394791e+10
3.068830497638451004e+10
3.257006291703962708e+10
3.364680178496446228e+10
3.420739969510988998e+10
3.423745908176433945e+10
3.431967346102474594e+10
3.445387222908734894e+10
2.108450260175782776e+10
2.489086893675095749e+10
2.818238538361700821e+10
3.077214652431152725e+10
3.264733366141001892e+10
3.371854855750080872e+10
3.427399863101203156e+10
3.429948097954178238e+10
3.438021090857150269e+10
3.451604301726025391e+10
2.128342443664930344e+10
2.507428355962915039e+10
2.833994948603038406e+10
3.089636954198226166e+10
3.274582975096006393e+10
3.379949533173325729e+10
3.434504232972905731e+10
3.436507235205698395e+10
3.444337225447843933e+10
3.457994985362820435e+10
2.151789424631865692e+10
2.530100805354519653e+10
2.854202603454655838e+10
3.105681724787279892e+10
3.286735773790428925e+10
3.388755215194937897e+10
3.441223844455162811e+10
3.442509489671450043e+10
3.449849304320243073e+10
3.463254127022657013e+10
2.174962268835911942e+10
2.552433035353716278e+10
2.874030889226541519e+10
3.121343655055682373e+10
3.298515808588607025e+10
3.397206225168435669e+10
3.447569111561905670e+10
3.448070059831730652e+10
3.454832300386153412e+10
3.467863450630954742e+10
2.197853197750808716e+10
2.574417914238789749e+10
2.893473980611176682e+10
3.136618679733729935e+10
3.309920341879453278e+10
3.405300776720292664e+10
3.453558154443471527e+10
3.453251753137871552e+10
3.459426944480989838e+10
3.472088046624814606e+10
2.220454567917400742e+10
2.596048464898662567e+10
2.912526175809971237e+10
3.151502832649409103e+10
3.320946723563392639e+10
3.413037157289770508e+10
3.459189741463455200e+10
3.458053490448703766e+10
3.463632320503440857e+10
3.475927148451471710e+10
2.242758826141068268e+10
2.617317808101615906e+10
2.931181902097230148e+10
3.165992264182064438e+10
3.331592398818783951e+10
3.420413734499443054e+10
3.464462710542019653e+10
3.462474263465174103e+10
3.467447580559919739e+10
3.479380048127390289e+10
2.264758533265565872e+10
2.638219193460762405e+10
2.949435705795455551e+10
3.180083228945365906e+10
3.341854900434300613e+10
3.427428945705351257e+10
3.469375971541320801e+10
3.466513138241879272e+10
3.470871947616443634e+10
3.482446106864051819e+10
2.286446388486149216e+10
2.658746019460866928e+10
2.967282252131039047e+10
3.193772076750865936e+10
3.351731844288413620e+10
3.434081301389535522e+10
3.473928500015293121e+10
3.470169258933560181e+10
3.473904725160397339e+10
3.485124751672711945e+10
2.307815204479601288e+10
2.678891797635276413e+10
2.984716341244054794e+10
3.207055266772996521e+10
3.361220937190311050e+10
3.440369388264864349e+10
3.478119338556233978e+10
3.473441839180236816e+10
3.476545288026103210e+10
3.487415475342859650e+10
2.328857919337565994e+10
2.698650175654338074e+10
3.001732894979706192e+10
3.219929373904074097e+10
3.370319979723906326e+10
3.446291869888629913e+10
3.481947612060363770e+10
3.476330174759789276e+10
3.478793080807425690e+10
3.489317837017472076e+10
2.348841783860335159e+10
2.717603389504652786e+10
3.018257691363269806e+10
3.232666388134536362e+10
3.379582417760144424e+10
3.452600353551136017e+10
3.486274179756746674e+10
3.479711865963261414e+10
3.481530518034043121e+10
3.491706980617320251e+10
2.367838242874858093e+10
2.735836026465171814e+10
3.034380960847976685e+10
3.245353390934129715e+10
3.389089810707563019e+10
3.459370146428256226e+10
3.491172552929619598e+10
3.483664131733469391e+10
3.484836089529795837e+10
3.494660319650185394e+10
2.386591187408257294e+10
2.753782446448742676e+10
3.050197357244365311e+10
3.257740268966139603e+10
3.398310850827930832e+10
3.465870998485449982e+10
3.495803525249832153e+10
3.487332419100631714e+10
3.487851093342974854e+10
3.497326240103775787e+10
2.405096084434457779e+10
2.771438512159230804e+10
3.065703504283638763e+10
3.269824669822150421e+10
3.407243963726422119e+10
3.472101896050185394e+10
3.500166382186792755e+10
3.490716135990606689e+10
3.490575054599291229e+10
3.499704362614745331e+10
2.423348457119487762e+10
2.788800133951598358e+10
3.080896075327116013e+10
3.281604293743568039e+10
3.415887618482034302e+10
3.478061856766077423e+10
3.504260447484022522e+10
3.493814747861251831e+10
3.493007555324955750e+10
3.501794350040885162e+10
2.441343901656828690e+10
2.805863309166632080e+10
3.095771830139387512e+10
3.293076903620570374e+10
3.424240333749472427e+10
3.483749939734015656e+10
3.508085090281099701e+10
3.496627767516992188e+10
3.495148222054604340e+10
3.503595898678260803e+10
2.459078093336738205e+10
2.822624122429453659e+10
3.110327602457987976e+10
3.304240321932461166e+10
3.432300683422172165e+10
3.489165254198681641e+10
3.511639708096955872e+10
3.499154723813167572e+10
3.496996701987472534e+10
3.505108733495056915e+10
2.476546776070114517e+10
2.839078720936938858e+10
3.124560281215937042e+10
3.315092428597337341e+10
3.440067288377779388e+10
3.494306946894039154e+10
3.514923743173291779e+10
3.501395200514834595e+10
3.498552687060864258e+10
3.506332619963085938e+10
2.493745754719571686e+10
2.855223325435764313e+10
3.138466845844128036e+10
3.325631169115147400e+10
3.447538819504508209e+10
3.499174206781526947e+10
3.517936677247896576e+10
3.503348816548529053e+10
3.499815913007418823e+10
3.507267370118556976e+10
2.510670918950711060e+10
2.871054244390430069e+10
3.152044348627281570e+10
3.335854548680797958e+10
3.454713997880789185e+10
3.503766265013347626e+10
3.520678029201921844e+10
3.505015239714409637e+10
3.500786162970215607e+10
3.507912819496594238e+10
2.527318230185998154e+10
2.886567849529763794e+10
3.165289894866978836e+10
3.345760628786750031e+10
3.461591597518570709e+10
3.508082392798851776e+10
3.523147354674459076e+10
3.506394181087068939e+10
3.501463256984169769e+10
3.508268845676266479e+10
2.541665943142223740e+10
2.899433854491681671e+10
3.175781853974882507e+10
3.353113086138717651e+10
3.466118693134761047e+10
3.510233065472361755e+10
3.523770384745453644e+10
3.506387255999746704e+10
3.501160203455735779e+10
3.507990024095037079e+10
2.548057447554763794e+10
2.903637410307707977e+10
3.177764805161945343e+10
3.353039842729299545e+10
3.464201044676628876e+10
3.506772364191655731e+10
3.519963281057035828e+10
3.503447987135601807e+10
3.499114597076126862e+10
3.506872328818235779e+10
2.554641003630083466e+10
2.908078724804319382e+10
3.180024992278242111e+10
3.353272876646404648e+10
3.462613199773532104e+10
3.503657903314823151e+10
3.516493503212557983e+10
3.500811410856398010e+10
3.497324414034531403e+10
3.505949944446116638e+10
2.561417527651735306e+10
2.912758484407422256e+10
3.182562791001585388e+10
3.353812233545670700e+10
3.461354884076952362e+10
3.500889131849760437e+10
3.513360480410128784e+10
3.498477174250389862e+10
3.495789482832781219e+10
3.505222846680815887e+10
2.568387955642405701e+10
2.917677406164088058e+10
3.185378623593359756e+10
3.354658012033097458e+10
3.460425887560961151e+10
3.498465563388585663e+10
3.510563694859336090e+10
3.496444973757472992e+10
3.494509677338506317e+10
3.504691018664454651e+10
2.575553241342722321e+10
2.922836247193376160e+10
3.188472960117712021e+10
3.355810364475819016e+10
3.459826057506069946e+10
3.496386775352844238e+10
3.508102692131262970e+10
3.494714557616793060e+10
3.493484911746485901e+10
3.504354482684725189e+10
2.582914382847657394e+10
2.928235809651897812e+10
3.191846317824319839e+10
3.357269498489583206e+10
3.459555301348575592e+10
3.494652409372815704e+10
3.505977077535146332e+10
3.493285712683284760e+10
3.492715123852444458e+10
3.504213281054188538e+10
2.590472406343680954e+10
2.933876928734558105e+10
3.195499259252324677e+10
3.359035674189406967e+10
3.459613585478279877e+10
3.493262171114585876e+10
3.504186516869087219e+10
3.492158279452143097e+10
3.492200283377193451e+10
3.504267454693009186e+10
2.598228343019536209e+10
2.939760469505806732e+10
3.199432394232859802e+10
3.361109206764946365e+10
3.460000935825305939e+10
3.492215830276143646e+10
3.502730735963954163e+10
3.491332142608146667e+10
3.491940391954330444e+10
3.504517079015779877e+10
2.606183274064092255e+10
2.945887342331531143e+10
3.203646380320991516e+10
3.363490465579313278e+10
3.460717438987636566e+10
3.491513220567979431e+10
3.501609516974491882e+10
3.490807238454650116e+10
3.491935500021121979e+10
3.504962256741565704e+10
2.614338309117997742e+10
2.952258502384502029e+10
3.208141924027826691e+10
3.366179872775801468e+10
3.461763240878879547e+10
3.491154239209550476e+10
3.500822707352005768e+10
3.490583557960244751e+10
3.492185690138489532e+10
3.505603100210784912e+10
2.622694566352015305e+10
2.958874934876229477e+10
3.212919776205654144e+10
3.369177904848996353e+10
3.463138547178756714e+10
3.491138848765000153e+10
3.500370215247613525e+10
3.490661130970786285e+10
3.492691063150058746e+10
3.506439735812790680e+10
2.631253200814041519e+10
2.965737657925917053e+10
3.217980736754870224e+10
3.372485092087325287e+10
3.464843623365766907e+10
3.491467074454777527e+10
3.500252001436088562e+10
3.491040034147566986e+10
3.493451759957683563e+10
3.507472316091020203e+10
2.640015408442837906e+10
2.972847740869470215e+10
3.223325657107625961e+10
3.376102021190265656e+10
3.466878795505918121e+10
3.492139004583802795e+10
3.500468088784064484e+10
3.491720398095117950e+10
3.494467964183870697e+10
3.508701022620389557e+10
2.648982399784453201e+10
2.980206282701533127e+10
3.228955427452338028e+10
3.380029331450895691e+10
3.469244448507228851e+10
3.493154795138272858e+10
3.501018564571602631e+10
3.492702393780517578e+10
3.495739887025489807e+10
3.510126046692454529e+10
2.658155415955765533e+10
2.987814425129034424e+10
3.234870992875476074e+10
3.384267716696577454e+10
3.471941026003820038e+10
3.494514663522697449e+10
3.501903573878943634e+10
3.493986248841849518e+10
3.497267774998662567e+10
3.511747600425973511e+10
2.667535726510967636e+10
2.995673348897544479e+10
3.241073347989163971e+10
3.388817926706580734e+10
3.474969033882720184e+10
3.496218890032526398e+10
3.503123317733776093e+10
3.495572238628881836e+10
3.499051910080400085e+10
3.513565917205237579e+10
2.677124628190605927e+10
3.003784270404164124e+10
3.247563527596647263e+10
3.393680763823979187e+10
3.478329037751813507e+10
3.498267822031661987e+10
3.504678061529605103e+10
3.497460679195774841e+10
3.501092603485792542e+10
3.515581246162349701e+10
2.686923458574081802e+10
3.012148452641838455e+10
3.254342616022061539e+10
3.398857083519326401e+10
3.482021663036701965e+10
3.500661868884058380e+10
3.506568127024989319e+10
3.499651938507675171e+10
3.503390209229456329e+10
3.517793868094510651e+10
2.696243651902494049e+10
3.020221167961928177e+10
3.261032235050896454e+10
3.404146243971240997e+10
3.485990316709835052e+10
3.503447727101576233e+10
3.508928063117092133e+10
3.502352403753370667e+10
3.506222097642628479e+10
3.520551671571018219e+10
2.705046840015028763e+10
3.027956159580758286e+10
3.267579536102481079e+10
3.409490826783715057e+10
3.490173858896853638e+10
3.506561737197501373e+10
3.511695984262223053e+10
3.505506492426029968e+10
3.509541413327787781e+10
3.523818954574670410e+10
2.714010977882919312e+10
3.035885054718589020e+10
3.274347610762595367e+10
3.415074470373847961e+10
3.494610439027619171e+10
3.509937670033046722e+10
3.514718325786350250e+10
3.508890852042968750e+10
3.513056512298713684e+10
3.527236950730652618e+10
2.723136997972943878e+10
3.044008786721738815e+10
3.281337316607374191e+10
3.420897918319673538e+10
3.499300674213893127e+10
3.513576018297246552e+10
3.517995526348259735e+10
3.512505934061369324e+10
3.516767801132387543e+10
3.530805970616489410e+10
2.732425861366817856e+10
3.052328301208583450e+10
3.288549535677940750e+10
3.426961943688873672e+10
3.504245216536960602e+10
3.517477310531430054e+10
3.521528058190362549e+10
3.516352220085166168e+10
3.520675706499304962e+10
3.534526333588307190e+10
2.741878539003210831e+10
3.060844574688438416e+10
3.295985180259234619e+10
3.433267351567794800e+10
3.509444752298511505e+10
3.521642116612330627e+10
3.525316431114627838e+10
3.520430221355062103e+10
3.524780677032657623e+10
3.538398375185306549e+10
2.751496006555265808e+10
3.069558600944455338e+10
3.303645185944466400e+10
3.439814976809873199e+10
3.514900003081471252e+10
3.526071041152062988e+10
3.529361190512304688e+10
3.524740477210126495e+10
3.529083178658548737e+10
3.542422439005717468e+10
2.761279270103205490e+10
3.078471392345562744e+10
3.311530523720399094e+10
3.446605691736350250e+10
3.520611728373018646e+10
3.530764724661569977e+10
3.533662911118021393e+10
3.529283549172177887e+10
3.533583696597623444e+10
3.546598880555693054e+10
2.771229351324910736e+10
3.087583995686215591e+10
3.319642192037608337e+10
3.453640398552050018e+10
3.526580718494300842e+10
3.535723845527689362e+10
3.538222204315625763e+10
3.534060031418491364e+10
3.538282738112223053e+10
3.550928065862707520e+10
2.785204664674339676e+10
3.101291982107060242e+10
3.332548421488814926e+10
3.465240305287018585e+10
3.536816926263310242e+10
3.544597783160836792e+10
3.545991358499051666e+10