# vtk DataFile Version 2.0
Sampled points
ASCII
DATASET UNSTRUCTURED_GRID
POINTS 1940 double
7.490693105667352211e+04 -2.234758209231180372e+05 -5.000000000000000000e+02
7.493949398629280040e+04 -2.234631380355000147e+05 -1.500000000000000000e+03
7.497205660455745237e+04 -2.234504550666050636e+05 -2.500000000000000000e+03
7.500461916330626991e+04 -2.234377722918699437e+05 -3.500000000000000000e+03
7.503718191121607379e+04 -2.234250894329835719e+05 -4.500000000000000000e+03
7.506974459644577291e+04 -2.234124062145079079e+05 -5.500000000000000000e+03
7.510230722057877574e+04 -2.233997229133157816e+05 -6.500000000000000000e+03
7.513486978519950935e+04 -2.233870398062797030e+05 -7.500000000000000000e+03
7.516743203688193171e+04 -2.233743563410930219e+05 -8.500000000000000000e+03
7.519999422746893833e+04 -2.233616727931878995e+05 -9.500000000000000000e+03
7.453874496095514041e+04 -2.225400250943863939e+05 -5.000000000000000000e+02
7.457133835481891583e+04 -2.225274245555286470e+05 -1.500000000000000000e+03
7.460393193813379912e+04 -2.225148239323702001e+05 -2.500000000000000000e+03
7.463652546226116829e+04 -2.225022235032065655e+05 -3.500000000000000000e+03
7.466911867539767991e+04 -2.224896229925871012e+05 -4.500000000000000000e+03
7.470171182460524142e+04 -2.224770218453416892e+05 -5.500000000000000000e+03
7.473430516484164400e+04 -2.224644208906634012e+05 -6.500000000000000000e+03
7.476689844589322456e+04 -2.224518201299768989e+05 -7.500000000000000000e+03
7.479949141437040817e+04 -2.224392190109609510e+05 -8.500000000000000000e+03
7.483208432207933220e+04 -2.224266178090622998e+05 -9.500000000000000000e+03
7.417060943925118772e+04 -2.216042190820431861e+05 -5.000000000000000000e+02
7.420323353829266853e+04 -2.215917008927194111e+05 -1.500000000000000000e+03
7.423585782711298089e+04 -2.215791826189307903e+05 -2.500000000000000000e+03
7.426848205549197155e+04 -2.215666642620975035e+05 -3.500000000000000000e+03
7.430110597477751435e+04 -2.215541461005175661e+05 -4.500000000000000000e+03
7.433372983204558841e+04 -2.215416275790194923e+05 -5.500000000000000000e+03
7.436635387910121062e+04 -2.215291089730499662e+05 -6.500000000000000000e+03
7.439897761551351869e+04 -2.215165902854531887e+05 -7.500000000000000000e+03
7.443160129146768304e+04 -2.215040715148157324e+05 -8.500000000000000000e+03
7.446422490698136971e+04 -2.214915526611310197e+05 -9.500000000000000000e+03
7.380252476602446404e+04 -2.206684031538093986e+05 -5.000000000000000000e+02
7.383517956093471730e+04 -2.206559673162186518e+05 -1.500000000000000000e+03
7.386783429417178559e+04 -2.206435311185464379e+05 -2.500000000000000000e+03
7.390048921748113935e+04 -2.206310948362546333e+05 -3.500000000000000000e+03
7.393314383362367516e+04 -2.206186590259121149e+05 -4.500000000000000000e+03
7.396579838965454837e+04 -2.206062231323582528e+05 -5.500000000000000000e+03
7.399845288400554273e+04 -2.205937868787206826e+05 -6.500000000000000000e+03
7.403110706804340589e+04 -2.205813505432908423e+05 -7.500000000000000000e+03
7.406376169079157989e+04 -2.205689138449421444e+05 -8.500000000000000000e+03
7.409641600324487081e+04 -2.205564770647941041e+05 -9.500000000000000000e+03
7.343449071219142934e+04 -2.197325770264891617e+05 -5.000000000000000000e+02
7.346717619363471749e+04 -2.197202235428448475e+05 -1.500000000000000000e+03
7.349986161373536743e+04 -2.197078696989527671e+05 -2.500000000000000000e+03
7.353254697407117055e+04 -2.196955157716801914e+05 -3.500000000000000000e+03
7.356523202600184595e+04 -2.196831620393174526e+05 -4.500000000000000000e+03
7.359791726831735286e+04 -2.196708082221742370e+05 -5.500000000000000000e+03
7.363060245085254428e+04 -2.196584543216549209e+05 -6.500000000000000000e+03
7.366328757360621239e+04 -2.196461003377581656e+05 -7.500000000000000000e+03
7.369597288519941503e+04 -2.196337459921963746e+05 -8.500000000000000000e+03
7.372865763666188286e+04 -2.196213915660769271e+05 -9.500000000000000000e+03
7.306650704872366623e+04 -2.187967404168840440e+05 -5.000000000000000000e+02
7.309922320583363762e+04 -2.187844690125145135e+05 -1.500000000000000000e+03
7.313193930503824959e+04 -2.187721978014796623e+05 -2.500000000000000000e+03
7.316465509462371119e+04 -2.187599265083086793e+05 -3.500000000000000000e+03
7.319737082321351045e+04 -2.187476548547229904e+05 -4.500000000000000000e+03
7.323008674251830962e+04 -2.187353831161914859e+05 -5.500000000000000000e+03
7.326280260392138734e+04 -2.187231115709917794e+05 -6.500000000000000000e+03
7.329551840587377956e+04 -2.187108399422487710e+05 -7.500000000000000000e+03
7.332823414682861767e+04 -2.186985679530875350e+05 -8.500000000000000000e+03
7.336094957816724491e+04 -2.186862958817896433e+05 -9.500000000000000000e+03
7.269857405007899797e+04 -2.178608935927242565e+05 -5.000000000000000000e+02
7.273132062492088880e+04 -2.178487045481105160e+05 -1.500000000000000000e+03
7.276406739232083783e+04 -2.178365156952758553e+05 -2.500000000000000000e+03
7.279681410060182679e+04 -2.178243267587353475e+05 -3.500000000000000000e+03
7.282956049808733223e+04 -2.178121374630041246e+05 -4.500000000000000000e+03
7.286230683645428508e+04 -2.177999480835657741e+05 -5.500000000000000000e+03
7.289505336584012548e+04 -2.177877586190268339e+05 -6.500000000000000000e+03
7.292779983610776253e+04 -2.177755690707789618e+05 -7.500000000000000000e+03
7.296054599712039635e+04 -2.177633794402140484e+05 -8.500000000000000000e+03
7.299329209901564172e+04 -2.177511897259392135e+05 -9.500000000000000000e+03
7.233069174050194852e+04 -2.169250368231603061e+05 -5.000000000000000000e+02
7.236346897388907382e+04 -2.169129301391184272e+05 -1.500000000000000000e+03
7.239624639862164622e+04 -2.169008233698157710e+05 -2.500000000000000000e+03
7.242902376609981002e+04 -2.168887167935142061e+05 -3.500000000000000000e+03
7.246180082312964078e+04 -2.168766098578556557e+05 -4.500000000000000000e+03
7.249457782137460890e+04 -2.168645028383229510e+05 -5.500000000000000000e+03
7.252735500942199724e+04 -2.168523954566491011e+05 -6.500000000000000000e+03
7.256013213868418825e+04 -2.168402879910989723e+05 -7.500000000000000000e+03
7.259290896210874780e+04 -2.168281809968146554e+05 -8.500000000000000000e+03
7.262568547510166536e+04 -2.168160736431670375e+05 -9.500000000000000000e+03
7.196286038971264497e+04 -2.159891695453490247e+05 -5.000000000000000000e+02
7.199566827230618219e+04 -2.159771452240874642e+05 -1.500000000000000000e+03
7.202847609644732438e+04 -2.159651208187877783e+05 -2.500000000000000000e+03
7.206128411223855801e+04 -2.159530963280707947e+05 -3.500000000000000000e+03
7.209409181947639445e+04 -2.159410717546921223e+05 -4.500000000000000000e+03
7.212689946826259256e+04 -2.159290470972717158e+05 -5.500000000000000000e+03
7.215970730716486287e+04 -2.159170220775568741e+05 -6.500000000000000000e+03
7.219251483904957422e+04 -2.159049972520529409e+05 -7.500000000000000000e+03
7.222532231401903846e+04 -2.158929726193806273e+05 -8.500000000000000000e+03
7.225812972745572915e+04 -2.158809473489225493e+05 -9.500000000000000000e+03
7.159507977182786271e+04 -2.150532920298350800e+05 -5.000000000000000000e+02
7.162791829426094773e+04 -2.150413500735762645e+05 -1.500000000000000000e+03
7.166075675857606984e+04 -2.150294080331113073e+05 -2.500000000000000000e+03
7.169359516326806624e+04 -2.150174656315596658e+05 -3.500000000000000000e+03
7.172643326127331238e+04 -2.150055234240534483e+05 -4.500000000000000000e+03
7.175927155123834382e+04 -2.149935811309679993e+05 -5.500000000000000000e+03
7.179211003165532020e+04 -2.149816384754204191e+05 -6.500000000000000000e+03
7.182494820538935892e+04 -2.149696960139173316e+05 -7.500000000000000000e+03
7.185778632100726827e+04 -2.149577534682033001e+05 -8.500000000000000000e+03
7.189062462707527447e+04 -2.149458105600229464e+05 -9.500000000000000000e+03
7.122734966097376309e+04 -2.141174045471608988e+05 -5.000000000000000000e+02
7.126021881238624337e+04 -2.141055446812417067e+05 -1.500000000000000000e+03
7.129308790601669170e+04 -2.140936847309494042e+05 -2.500000000000000000e+03
7.132595669329863449e+04 -2.140818249745297362e+05 -3.500000000000000000e+03
7.135882542280066991e+04 -2.140699651337361720e+05 -4.500000000000000000e+03
7.139169434308708878e+04 -2.140581049303211912e+05 -5.500000000000000000e+03
7.142456320559300366e+04 -2.140462446425304515e+05 -6.500000000000000000e+03
7.145743201183140627e+04 -2.140343845472380926e+05 -7.500000000000000000e+03
7.149030101034743711e+04 -2.140225243662000285e+05 -8.500000000000000000e+03
7.152316994956924464e+04 -2.140106638239082240e+05 -9.500000000000000000e+03
7.085967032692984503e+04 -2.131815065344904142e+05 -5.000000000000000000e+02
7.089257009945262689e+04 -2.131697290380126215e+05 -1.500000000000000000e+03
7.092546981452978798e+04 -2.131579514569945168e+05 -2.500000000000000000e+03
7.095836922363209305e+04 -2.131461740696668567e+05 -3.500000000000000000e+03
7.099126857529098925e+04 -2.131343965977979242e+05 -4.500000000000000000e+03
7.102416811803547898e+04 -2.131226187631528301e+05 -5.500000000000000000e+03
7.105706760333594866e+04 -2.131108408439648047e+05 -6.500000000000000000e+03
7.108996678266715026e+04 -2.130990631184669328e+05 -7.500000000000000000e+03
7.112286615461268229e+04 -2.130872853070568817e+05 -8.500000000000000000e+03
7.115576571613264969e+04 -2.130755068559895153e+05 -9.500000000000000000e+03
7.049204179390316131e+04 -2.122455982610009378e+05 -5.000000000000000000e+02
7.052497217818743957e+04 -2.122339031361794914e+05 -1.500000000000000000e+03
7.055790250536412350e+04 -2.122222079266501241e+05 -2.500000000000000000e+03
7.059083252688951325e+04 -2.122105129106428940e+05 -3.500000000000000000e+03
7.062376249130856013e+04 -2.121988178099268116e+05 -4.500000000000000000e+03
7.065669264716640464e+04 -2.121871223462654743e+05 -5.500000000000000000e+03
7.068962274591794994e+04 -2.121754267978934513e+05 -6.500000000000000000e+03
7.072255253752424323e+04 -2.121637311661678250e+05 -7.500000000000000000e+03
[...]
POINT_DATA 1940
SCALARS fault_number int
LOOKUP_TABLE default
2
2
2
2
2
2
2
2
2
2
2
2
2
2
2
2
2
2
2
2
2
2
2
2
2
2
2
2
2
2
2
2
2
2
2
2
2
2
2
2
2
2
2
2
2
2
2
2
2
2
2
2
2
2
2
2
2
2
2
2
2
2
2
2
2
2
2
2
2
2
2
2
2
2
2
2
2
2
2
2
2
2
2
2
2
2
2
2
2
2
2
2
2
2
2
2
2
2
2
2
2
2
2
2
2
2
2
2
2
2
2
2
2
2
2
2
2
2
2
2
2
2
2
2
2
2
2
2
2
2
2
2
2
2
2
2
2
2
2
2
2
2
2
2
2
2
2
2
2
2
2
2
2
2
2
2
2
2
2
2
2
2
2
2
2
2
2
2
2
2
2
2
2
2
2
2
2
2
2
2
2
2
2
2
2
2
2
2
2
2
2
2
2
2
2
2
2
2
2
2
2
2
2
2
2
2
2
2
2
2
2
2
2
2
2
2
2
2
2
2
2
2
2
2
2
2
2
2
2
2
2
2
2
2
2
2
2
2
2
2
2
2
2
2
2
2
2
2
2
2
2
2
2
2
2
2
2
2
2
2
2
2
2
2
2
2
2
2
2
2
2
2
2
2
2
2
2
2
2
2
2
2
2
2
2
2
2
2
2
2
2
2
2
2
2
2
2
2
2
2
2
2
2
2
2
2
2
2
2
2
2
2
2
2
2
2
2
2
2
2
2
2
2
2
2
2
2
2
2
2
2
2
2
2
2
2
2
2
2
2
2
2
2
2
2
2
2
2
2
2
2
2
2
2
2
2
2
2
2
2
2
2
2
2
2
2
2
2
2
2
2
2
2
2
2
2
2
2
2
2
2
2
2
2
2
2
2
2
2
2
2
2
2
2
2
2
2
2
2
2
2
2
2
2
2
2
2
2
2
2
2
2
2
2
2
2
2
2
2
2
2
2
2
2
2
2
2
2
2
2
2
2
2
2
2
2
2
2
2
2
2
2
2
2
2
2
2
2
2
2
2
2
2
2
2
2
2
2
2
2
2
2
2
2
2
2
2
2
2
2
2
2
2
2
2
2
2
2
2
2
2
2
2
2
2
2
2
2
2
2
2
2
2
2
2
2
2
2
2
2
2
2
2
2
2
2
2
2
2
2
2
2
2
2
2
2
2
2
2
2
2
2
2
2
2
2
2
2
2
2
2
2
2
2
2
2
2
2
2
2
2
2
2
2
2
2
2
2
2
2
2
2
2
2
2
2
2
2
2
2
2
2
2
2
2
2
2
2
2
2
2
2
2
2
2
2
2
2
2
2
2
2
2
2
2
2
2
2
2
2
2
2
2
2
2
2
2
2
2
2
2
2
2
2
2
2
2
2
2
2
2
2
2
2
2
2
2
2
2
2
2
2
2
2
2
2
2
2
2
2
2
2
2
2
2
2
2
2
2
2
2
2
2
2
2
2
2
2
2
2
2
2
2
2
2
2
2
2
2
2
2
2
2
2
2
2
2
2
2
2
2
2
2
2
2
2
2
2
2
2
2
2
2
2
2
2
2
2
2
2
2
2
2
2
2
2
2
2
2
2
2
2
2
2
2
2
2
2
2
2
2
2
2
2
2
2
2
2
2
2
2
2
2
2
2
2
2
2
2
2
2
2
2
2
2
2
2
2
2
2
2
2
2
2
2
2
2
2
2
2
2
2
2
2
2
2
2
2
2
2
2
2
2
2
2
2
2
2
2
2
2
2
2
2
2
2
2
2
2
2
2
2
2
2
2
2
2
2
2
2
2
2
2
2
2
2
2
2
2
2
2
2
2
2
2
2
2
2
2
2
2
2
2
2
2
2
2
2
2
2
2
2
2
2
2
2
2
2
2
2
2
2
2
2
2
2
2
2
2
2
2
2
2
2
2
2
2
2
2
2
2
2
2
2
2
2
2
2
2
2
2
2
2
2
2
2
2
2
2
2
2
2
2
2
2
2
2
2
2
2
2
2
2
2
2
2
2
2
2
2
2
2
2
2
2
2
2
2
2
2
2
2
2
2
2
2
2
2
2
2
2
2
2
2
2
2
2
2
2
2
2
2
2
2
2
2
2
2
2
2
2
2
2
2
2
2
2
2
2
2
2
2
2
2
2
2
2
2
2
2
2
2
2
2
2
2
2
2
2
2
2
2
2
2
2
2
2
2
2
2
2
2
2
2
2
2
2
2
2
2
2
2
2
2
2
2
2
2
2
2
2
2
2
2
2
2
2
2
2
2
2
2
2
2
2
2
2
2
2
2
2
2
2
2
2
2
2
2
2
2
2
2
2
2
2
2
2
2
2
2
2
2
2
2
2
2
2
2
2
2
2
2
2
2
2
2
2
2
2
2
2
2
2
2
2
2
2
2
2
2
2
2
2
2
2
2
2
2
2
2
2
2
2
2
2
2
2
2
2
2
2
2
2
2
2
2
2
2
2
2
2
2
2
2
2
2
2
2
2
2
2
2
2
2
2
2
2
2
2
2
2
2
2
2
2
2
2
2
2
2
2
2
2
2
2
2
2
2
2
2
2
2
2
2
2
2
2
2
2
2
2
2
2
2
2
2
2
2
2
2
2
2
2
2
2
2
2
2
2
2
2
2
2
2
2
2
2
2
2
2
2
2
2
2
2
2
2
2
2
2
2
2
2
2
2
2
2
2
2
2
2
2
2
2
2
2
2
2
2
2
2
2
2
2
2
2
2
2
2
2
2
2
2
2
2
2
2
2
2
2
2
2
2
2
2
2
2
2
2
2
2
2
2
2
2
2
2
2
2
2
2
2
2
2
2
2
2
2
2
2
2
2
2
2
2
2
2
2
2
2
2
2
2
2
2
2
2
2
2
2
2
2
2
2
2
2
2
2
2
2
2
2
2
2
2
2
2
2
2
2
2
2
2
2
2
2
2
2
2
2
2
2
2
2
2
2
2
2
2
2
2
2
2
2
2
2
2
2
2
2
2
2
2
2
2
2
2
2
2
2
2
2
2
2
2
2
2
2
2
2
2
2
2
2
2
2
2
2
2
2
2
2
2
2
2
2
2
2
2
2
2
2
2
2
2
2
2
2
2
2
2
2
2
2
2
2
2
2
2
2
2
2
2
2
2
2
2
2
2
2
2
2
2
2
2
2
2
2
2
2
2
2
2
2
2
2
2
2
2
2
2
2
2
2
2
2
2
2
2
2
2
2
2
2
2
2
2
2
2
2
2
2
2
2
2
2
2
2
2
2
2
2
2
2
2
2
2
2
2
2
2
2
2
2
2
2
2
2
2
2
2
2
2
2
2
2
2
2
2
2
2
2
2
2
2
2
2
2
2
2
2
2
2
2
2
2
2
2
2
2
2
2
2
2
2
2
2
2
2
2
2
2
2
2
2
2
2
2
2
2
2
2
2
2
2
2
2
2
2
2
2
2
2
2
2
2
2
2
2
2
2
2
2
2
2
2
2
2
2
2
2
2
2
2
2
2
2
2
2
2
2
2
2
2
2
2
2
2
2
2
2
2
2
2
2
2
2
2
2
2
2
2
2
2
2
2
2
2
2
2
2
2
2
2
2
2
2
2
2
2
2
2
2
2
2
2
2
2
2
2
2
2
2
2
2
2
2
2
2
2
2
2
2
2
2
2
2
2
2
2
2
2
2
2
2
2
2
2
2
2
2
2
2
2
2
2
2
2
2
2
2
2
2
2
2
2
2
2
2
2
2
2
2
2
2
2
2
2
2
2
2
2
2
2
2
2
2
2
2
2
2
2
2
2
2
2
2
2
2
2
2
2
2
2
2
2
2
2
2
2
2
2
2
2
2
2
2
2
2
2
2
2
2
2
2
2
2
2
2
2
2
2
2
2
2
2
2
2
2
2
2
2
2
2
2
2
2
2
2
2
2
2
2
2
2
2
2
2
2
2
2
2
2
2
2
2
2
2
2
2
2
2
2
2
2
2
2
2
2
2
2
2
2
2
2
2
2
2
2
2
2
2
2
2
2
2
2
2
2
2
2
2
2
2
2
2
2
2
2
2
2
2
2
2
2
2
2
2
2
2
2
2
2
2
2
2
2
2
2
2
2
2
2
2
2
2
2
2
2
2
2
2
2
2
2
2
2
2
2
2
2
2
2
2
2
2
2
2
2
2
2
2
2
2
2
2
2
2
2
2
2
2
2
2
2
2
2
2
2
2
2
2
2
2
2
2
2
2
2
2
2
2
2
2
2
2
2
2
2
2
2
2
2
2
2
2
2
2
2
2
2
2
2
2
2
2
2
2
2
2
2
2
2
2
2
2
2
2
2
2
2
2
2
2
2
2
2
2
2
2
2
2
2
2
2
2
2
2
2
2
2
2
2
2
2
2
2
2
2
2
SCALARS effective_shear_modulus float
LOOKUP_TABLE default
2.010708864723354721e+10
2.378600694345950699e+10
2.691063766211153793e+10
2.928990330247848129e+10
3.103274621095329285e+10
3.206463397933697128e+10
3.277214164229536057e+10
3.314270863383560944e+10
3.342423061141636276e+10
3.361124461982939148e+10
2.010179152650207138e+10
2.376541856813361740e+10
2.687098081516355133e+10
2.922699504020816803e+10
3.095680594219649506e+10
3.198673183006593704e+10
3.270539179791302490e+10
3.309889103544065475e+10
3.340657172597932434e+10
3.362734569967652512e+10
2.009815439745344543e+10
2.374665550073260498e+10
2.683312496213191605e+10
2.916676174925429916e+10
3.088109126609464264e+10
3.190367353155326080e+10
3.262660650796912766e+10
3.303626446188832092e+10
3.336171603025799942e+10
3.360184515594067001e+10
2.030859654046799850e+10
2.394911803143682098e+10
2.700212154550625610e+10
2.927492739475718307e+10
3.093423617707497025e+10
3.191182091910871124e+10
3.260458537727157974e+10
3.300049892840285110e+10
3.331096622731703568e+10
3.353481633151015472e+10
2.061067684702769089e+10
2.424060216637077713e+10
2.724936187017868805e+10
2.944324756557218933e+10
3.103124303866638184e+10
3.195000389780221939e+10
3.260108489505820084e+10
3.297397371049284363e+10
3.326075529631142807e+10
3.346030650630171967e+10
2.090486888090173340e+10
2.452451541675330734e+10
2.749017522987332153e+10
2.960727846975307083e+10
3.112617195375149918e+10
3.198808864800545883e+10
3.259886398688028717e+10
3.294936070929772186e+10
3.321307027170140457e+10
3.338891985163057327e+10
2.119091709806351471e+10
2.480066469641610718e+10
2.772444545803554535e+10
2.976697622731968689e+10
3.121901330741604996e+10
3.202607595565910339e+10
3.259792238451533890e+10
3.292665717897377777e+10
3.316790527686047745e+10
3.332064652699108124e+10
2.146857373677890396e+10
2.506886277049743652e+10
2.795205977579371643e+10
2.992229815971593857e+10
3.130975772221578979e+10
3.206396662398246002e+10
3.259825992843809509e+10
3.290586057389652634e+10
3.312525475871077728e+10
3.325547715340019989e+10
2.173759909134217072e+10
2.532892838272095108e+10
2.817290887912000656e+10
3.007320289299241638e+10
3.139839606761800385e+10
3.210176143581774139e+10
3.259987654144853973e+10
3.288696851681748581e+10
3.308511339621735001e+10
3.319340271559248352e+10
2.199776131268417740e+10
2.558068594454100037e+10
2.838688685241867828e+10
3.021965021840296555e+10
3.148491939209204102e+10
3.213946113528479385e+10
3.260277224835014725e+10
3.286997885191165161e+10
3.304747620044600677e+10
3.313441461278328705e+10
2.224883667589533997e+10
2.582396584740065384e+10
2.859389134505075836e+10
3.036160118535842133e+10
3.156931896711179352e+10
3.217706647480086136e+10
3.260694718304303741e+10
3.285488960943712997e+10
3.301233851959972763e+10
3.307850470997333908e+10
2.249060986774834824e+10
2.605860443976264572e+10
2.879382327729739380e+10
3.049901815290879822e+10
3.165158634289250183e+10
3.221457818123443604e+10
3.261240159520299149e+10
3.284169904064363480e+10
3.297969597721557617e+10
3.302566526581813049e+10
2.272287377740311050e+10
2.628444415895505142e+10
2.898658727031008911e+10
3.063186472282023239e+10
3.173171327342656326e+10
3.225199698601019669e+10
3.261913580687046432e+10
3.283040557421015930e+10
3.294954450781536102e+10
3.297588898044250870e+10
2.294542978050389481e+10
2.650133351398130417e+10
2.917209138551872635e+10
3.076010575015058136e+10
3.180969176020324326e+10
3.228932360724610519e+10
3.262715025051353455e+10
3.282100782648685455e+10
3.292188036366173172e+10
3.292916898286796951e+10
2.315808799570385742e+10
2.670912732881728363e+10
2.935024733849813843e+10
3.088370735615605927e+10
3.188551398162080765e+10
3.232655873274913788e+10
3.263644546161871719e+10
3.281350463152131653e+10
3.289670008559173584e+10
3.288549877775620270e+10
2.336066722044550323e+10
2.690768669151993561e+10
2.952097046385887527e+10
3.100263693035038376e+10
3.195917234516841125e+10
3.236370303292329025e+10
3.264702206851053619e+10
3.280789501798506165e+10
3.287400052441607285e+10
3.284487232283231735e+10
2.355667887695784378e+10
2.710038457165442657e+10
2.968719474489634705e+10
3.111909255529346085e+10
3.203226195325375366e+10
3.240192423504103470e+10
3.265966753344321060e+10
3.280464480260579300e+10
3.285387260999826431e+10
3.280695375311706924e+10
2.374703332862399292e+10
2.728806167196331406e+10
2.984960114184692764e+10
3.123350434031966400e+10
3.210498381848802567e+10
3.244123480623747253e+10
3.267426823664690018e+10
3.280358458931330109e+10
3.283609369818369293e+10
3.277146987101680374e+10
2.392823824752608490e+10
2.746740237105054474e+10
3.000534104417327499e+10
3.134375742116319275e+10
3.217579260899055481e+10
3.248047012445728683e+10
3.269000163916995621e+10
3.280419372830732346e+10
3.282049810885028076e+10
3.273866171343736649e+10
2.410015861513637543e+10
2.763830180851826859e+10
3.015434972758623123e+10
3.144982640440951157e+10
3.224468216398463440e+10
3.251963078483766174e+10
3.270686872294072723e+10
3.280647207939157104e+10
3.280708411441288757e+10
3.270852530813327026e+10
2.426266630116859055e+10
2.780065997165368652e+10
3.029656525887599564e+10
3.155168687499482346e+10
3.231164643684174347e+10
3.255871735477966309e+10
3.272487058548445129e+10
3.281041967547690964e+10
3.279585020814709854e+10
3.268105697889179230e+10
2.441564034534844971e+10
2.795438195151033020e+10
3.043192844491580200e+10
3.164931534478055191e+10
3.237667959474583054e+10
3.259773040463127899e+10
3.274400837696887970e+10
3.281603669919215393e+10
3.278679512244799423e+10
3.265625339011269760e+10
2.455896685765222168e+10
2.809937787334048080e+10
3.056038303999026108e+10
3.174268936383832550e+10
3.243977595388424301e+10
3.263667047737870026e+10
3.276428331981120682e+10
3.282332347780569077e+10
3.277991782976937485e+10
3.263411154186236954e+10
2.469253927478940582e+10
2.823556304985396194e+10
3.068187575323746490e+10
3.183178754750450897e+10
3.250093004724369812e+10
3.267553813584210587e+10
3.278569673753795624e+10
3.283228050378194427e+10
3.277521753732394028e+10
3.261462874694237518e+10
2.481625820816171265e+10
2.836285802382112122e+10
3.079635612791803360e+10
3.191658943290091705e+10
3.256013658150105286e+10
3.271433392299464417e+10
3.280825001287089539e+10
3.284290841476128006e+10
3.277269368166242981e+10
3.259780264797835541e+10
2.493003148297657394e+10
2.848118837358787537e+10
3.090377664520447922e+10
3.199707559710928345e+10
3.261739041650701523e+10
3.275305834564572525e+10
3.283194460645526505e+10
3.285520800167195892e+10
3.277234594601026917e+10
3.258363123052088928e+10
2.503377425836600876e+10
2.859048484661636353e+10
3.100409275447301102e+10
3.207322760524016953e+10
3.267268654736090088e+10
3.279171192246004105e+10
3.285678207843723297e+10
3.286918021432878494e+10
3.277417425614263153e+10
3.257211279229888916e+10
2.512740915069515228e+10
2.869068343706015778e+10
3.109726281132096481e+10
3.214502809557405472e+10
3.272602018393956757e+10
3.283029514402203751e+10
3.288276404726710510e+10
3.288482615114812851e+10
3.277817875275207901e+10
3.256324598435966873e+10
2.521086616012574768e+10
2.878172553173701096e+10
3.118324810082935333e+10
3.221246063294276047e+10
3.277738674305933762e+10
3.286880852023897552e+10
3.290989220954770279e+10
3.290214706121798325e+10
3.278435983076492310e+10
3.255702976780224991e+10
2.528408275513501358e+10
2.886355785669416428e+10
3.126201298529447937e+10
3.227550987211480331e+10
3.282678177454098892e+10
3.290725254138799286e+10
3.293816835998752594e+10
3.292114435783823013e+10
3.279271812356359100e+10
3.255346342356886292e+10
2.534700379352989960e+10
2.893613215014018631e+10
3.133352473192789078e+10
3.233416147815277481e+10
3.287420100238861847e+10
3.294562766547690582e+10
3.296759435380083084e+10
3.294181959621537399e+10
3.280325447789347076e+10
3.255254657311561966e+10
2.539958160841745377e+10
2.899940547573131561e+10
3.139775345927505112e+10
3.238840206065812302e+10
3.291964033104257965e+10
3.298393436026981735e+10
3.299817213638863373e+10
3.296417448718266296e+10
3.281597000104793930e+10
3.255427917462516403e+10
2.535453545026525497e+10
2.895891958957862473e+10
3.136408419479505157e+10
3.236344346039134216e+10
3.290614450795106506e+10
3.298442970062739563e+10
3.301033410934515381e+10
3.298562504591422653e+10
3.285040083859014511e+10
3.260547852396808624e+10
2.526581139090040588e+10
2.887383694552690506e+10
3.129003099953511429e+10
3.230705124719485474e+10
3.287000949775344849e+10
3.297060205733813858e+10
3.301510698374697113e+10
3.300528770915306854e+10
3.288962480967919540e+10
3.266878736281993484e+10
2.517730850762009430e+10
2.878906991219235611e+10
3.121629230204149246e+10
3.225087263809515381e+10
3.283387031044946289e+10
3.295644382082903671e+10
3.301912514997570801e+10
3.302366439298021698e+10
3.292709471603166580e+10
3.272994927742355347e+10
2.508902639380583572e+10
2.870461770347551346e+10
3.114286765303645706e+10
3.219490799045244217e+10
3.279772794094628143e+10
3.294195596799832153e+10
3.302238874640991974e+10
3.304075368020581436e+10
3.296280652103051376e+10
3.278895637221227264e+10
2.500096429524631882e+10
2.862047934694849777e+10
3.106975653934069443e+10
3.213915758326269531e+10
3.276158334161575699e+10
3.292713947594451523e+10
3.302489793324945450e+10
3.305655422056222153e+10
3.299675636553440857e+10
3.284580104819770432e+10
2.491312166949720383e+10
2.853665399474378967e+10
3.099695849387379456e+10
3.208362173201904678e+10
3.272543749117465210e+10
3.291199530370315170e+10
3.302665290297948456e+10
3.307106478439258575e+10
3.302894058386178589e+10
3.290047594319253159e+10
2.482549804196784973e+10
2.845314091994474030e+10
3.092447319400537491e+10
3.202830082557564545e+10
3.268929130279043198e+10
3.289652438574886703e+10
3.302765387720772552e+10
3.308428424858064270e+10
3.305935568061264420e+10
3.295297398347995758e+10
2.473809286995884323e+10
2.836993921211521530e+10
3.085230005996138000e+10
3.197319506940309143e+10
3.265314567587193680e+10
3.288072766970632935e+10
3.302790110192503738e+10
3.309621158008288574e+10
3.308799834431004715e+10
3.300328836024205017e+10
2.465090568098699951e+10
2.828704796748595810e+10
3.078043851916157150e+10
3.191830469980640030e+10
3.261700148805471039e+10
3.286460608182109833e+10
3.302739485154858017e+10
3.310684584839139175e+10
3.311486547421511078e+10
3.305141256501890945e+10
2.456393586687598038e+10
2.820446646490394974e+10
3.070888823406113434e+10
3.186363002141080093e+10
3.258085960015964890e+10
3.284816054335069275e+10
3.302613542899810028e+10
3.311618623096579742e+10
3.313995415271578598e+10
3.309734036021498108e+10
2.447718288799821091e+10
2.812219386492689133e+10
3.063764870691403198e+10
3.180917123290346527e+10
3.254472086133691406e+10
3.283139196958125687e+10
3.302412316569723892e+10
3.312423199880319977e+10
3.316326162692952347e+10
3.314106579223980713e+10
2.439064613697945023e+10
2.804022920369962692e+10
3.056671935185369492e+10
3.175492851838484192e+10
3.250858609003588486e+10
3.281430125573731613e+10
3.302135841920652390e+10
3.313098252753501892e+10
3.318478534918310928e+10
3.318258315749404526e+10
2.430432514486026382e+10
2.795857164022630310e+10
3.049609972230223083e+10
3.170090213945887756e+10
3.247245607912763977e+10
3.279688928125846100e+10
3.301784157424957657e+10
3.313643729559859848e+10
3.320452296168727112e+10
3.322188703949492264e+10
2.421821937567613602e+10
2.787722040035645676e+10
3.042578931109099960e+10
3.164709224357455826e+10
3.243633160050748062e+10
3.277915692872844315e+10
3.301357304611728668e+10
3.314059587991026688e+10
3.322247227064469528e+10
3.325897231241983414e+10
2.413232836207557678e+10
2.779617476825888062e+10
3.035578765410298920e+10
3.159349899236109161e+10
3.240021343050388718e+10
3.276110507374732971e+10
3.300855327473872375e+10
3.314345796009766006e+10
3.323863130078990555e+10
3.329383414017007828e+10
2.404995633926218796e+10
2.771834348223378372e+10
3.028835146371415329e+10
3.154151749229883194e+10
3.236484151610150528e+10
3.274305021052857590e+10
3.300288395793484497e+10
3.314512274621582794e+10
3.325308920141032410e+10
3.332654382112992859e+10
2.397108160931910706e+10
2.764370244403499985e+10
3.022345954753141022e+10
3.149113448359916687e+10
3.233021569576851654e+10
3.272501061563523865e+10
3.299660742927413559e+10
3.314566264781618118e+10
3.326594484847607422e+10
3.335722308779002380e+10
2.389239135917304611e+10
2.756933343541884613e+10
3.015884752729189301e+10
3.144095105850859833e+10
3.229559737149965668e+10
3.270667730062706375e+10
3.298963636943508911e+10
3.314500136674593353e+10
3.327713821384959793e+10
3.338583267428456879e+10
2.381388521430006790e+10
2.749523574682369614e+10
3.009451490217523956e+10
3.139096725355066681e+10
3.226098713847910309e+10
3.268805101965237808e+10
3.298197127167650604e+10
3.314313894999575806e+10
3.328666811653339005e+10
3.341236909251367188e+10
2.373556286737308884e+10
2.742140866389878082e+10
3.003046111586921310e+10
3.134118309317287827e+10
3.222638556506082535e+10
3.266913251879204941e+10
3.297361266701148605e+10
3.314007553772524261e+10
3.329453352281676102e+10
3.343682905368634415e+10
2.365742367586484528e+10
2.734785147577117920e+10
2.996668588300448608e+10
3.129159872932196808e+10
3.219179323365363312e+10
3.264992253583877945e+10
3.296456110861691284e+10
3.313581136083500671e+10
3.330073357335904312e+10
3.345920952271501160e+10
2.357946726774264526e+10
2.727456347593838501e+10
2.990318864996426010e+10
3.124221419508509064e+10
3.215721070256335449e+10
3.263042179681989670e+10
3.295481715918848038e+10
3.313034672347745514e+10
3.330526756997101593e+10
3.347950774239067841e+10
2.350169327004199600e+10
2.720154401260855865e+10
2.983996890600768661e+10
3.119302951118774796e+10
3.212263850802664185e+10
3.261063102403432465e+10
3.294438141924403381e+10
3.312368202948233414e+10
3.330813496778432465e+10
3.349772116799132538e+10
2.342410104451961517e+10
2.712879226248241425e+10
2.977702626296296310e+10
3.114404479050274277e+10
3.208807718468276215e+10
3.259055092531995773e+10
3.293325450927882385e+10
3.311581777059875107e+10
3.330933539324180984e+10
3.351384748120623398e+10
2.334669028726261520e+10
2.705630757886922836e+10
2.971436019387978745e+10
3.109525999458868408e+10
3.205352721821301651e+10
3.257018219995215988e+10
3.292143706448406601e+10
3.310675450927640152e+10
3.330886862660931396e+10
3.352788463293317032e+10
2.326946069296323013e+10
2.698408931358400726e+10
2.965197017545281601e+10
3.104667507332535934e+10
3.201898908164267349e+10
3.254952553994237900e+10
3.290892975001171875e+10
3.309649291086941910e+10
3.330673462796153259e+10
3.353983082875037384e+10
2.319241162641803360e+10
2.691213665123701096e+10
2.958985581817910385e+10
3.099829010646279144e+10
3.198446325313112640e+10
3.252858163915305710e+10
3.289573326783133316e+10
3.308503373002978897e+10
3.330293349949945068e+10
3.354968449978594971e+10
2.311554271883676529e+10
2.684044894539842606e+10
2.952801658266453171e+10
3.095010504787375641e+10
3.194995017785443878e+10
3.250735117703710175e+10
3.288184833028501129e+10
3.307237779367577744e+10
3.329746550791602325e+10
3.355744432250874710e+10
2.304443114129404449e+10
2.677691570031011581e+10
2.947642452678541946e+10
3.091366286847572327e+10
3.192718711787158966e+10
3.249608008853243256e+10
3.287597135725573349e+10
3.306568577171514511e+10
3.329333878563197708e+10
3.355896658322775269e+10
2.300737895340659714e+10
2.675782759147747803e+10
2.947681320071836472e+10
3.093306112409873962e+10
3.195736726879223251e+10
3.252814339230101776e+10
3.290454231820146179e+10
3.308540190285756683e+10
3.329946493822170258e+10
3.354669507219056320e+10
2.297072177184877777e+10
2.673950643434304428e+10
2.947829567904043961e+10
3.095378460970660782e+10
3.198909941655518723e+10
3.256196254384744263e+10
3.293480488173609161e+10
3.310647458614931488e+10
3.330654199831488419e+10
3.353490373030602646e+10
2.293445980003537750e+10
2.672195224046138382e+10
2.948087258624263000e+10
3.097583519029374313e+10
3.202238660764211273e+10
3.259754116006199646e+10
3.296676216052883530e+10
3.312890550059260941e+10
3.331457015680405426e+10