# vtk DataFile Version 2.0
Sampled points
ASCII
DATASET UNSTRUCTURED_GRID
POINTS 400 double
-1.964083763166746940e+04 1.274928321689105214e+05 -1.000000000000000000e+03
-1.970737931938925249e+04 1.275142083452055813e+05 -3.000000000000000000e+03
-1.977392076092359639e+04 1.275355849105490051e+05 -5.000000000000000000e+03
-1.984046171364736801e+04 1.275569615875558957e+05 -7.000000000000000000e+03
-1.990700242019092548e+04 1.275783386536205071e+05 -9.000000000000000000e+03
-2.151927207907639968e+04 1.214850834049256664e+05 -1.000000000000000000e+03
-2.158539583314559422e+04 1.215076110271992220e+05 -3.000000000000000000e+03
-2.165151933000732970e+04 1.215301390330939903e+05 -5.000000000000000000e+03
-2.171764232632239873e+04 1.215526674221358408e+05 -7.000000000000000000e+03
-2.178376506543531286e+04 1.215751961948081153e+05 -9.000000000000000000e+03
-2.339964739310133155e+04 1.154776796286196914e+05 -1.000000000000000000e+03
-2.346535233649392467e+04 1.155013585120293574e+05 -3.000000000000000000e+03
-2.353105701186422084e+04 1.155250377736904193e+05 -5.000000000000000000e+03
-2.359676117587805493e+04 1.155487174131324864e+05 -7.000000000000000000e+03
-2.366246507187391398e+04 1.155723974308344186e+05 -9.000000000000000000e+03
-2.528195890962045814e+04 1.094706191144018085e+05 -1.000000000000000000e+03
-2.534724392502275441e+04 1.094954490743068454e+05 -3.000000000000000000e+03
-2.541252866179764533e+04 1.095202794071518583e+05 -5.000000000000000000e+03
-2.547781336354031373e+04 1.095451101135015488e+05 -7.000000000000000000e+03
-2.554309778665821068e+04 1.095699411928029440e+05 -9.000000000000000000e+03
-2.716620147401726717e+04 1.034639009600502322e+05 -1.000000000000000000e+03
-2.723106593409422931e+04 1.034898818135281035e+05 -3.000000000000000000e+03
-2.729593010514396883e+04 1.035158630346933496e+05 -5.000000000000000000e+03
-2.736079423076166131e+04 1.035418446241076599e+05 -7.000000000000000000e+03
-2.742565806735437218e+04 1.035678265812220779e+05 -9.000000000000000000e+03
-3.056090931850919151e+04 9.520362632925355865e+04 -1.000000000000000000e+03
-3.062538119488500524e+04 9.523058832900226116e+04 -3.000000000000000000e+03
-3.068985277420823695e+04 9.525755069136369275e+04 -5.000000000000000000e+03
-3.075432430042405394e+04 9.528451341703988146e+04 -7.000000000000000000e+03
-3.081879528644412130e+04 9.531147622766751738e+04 -9.000000000000000000e+03
-3.546950679609838699e+04 8.469069457452499773e+04 -1.000000000000000000e+03
-3.553361375972170936e+04 8.471846755770707387e+04 -3.000000000000000000e+03
-3.559772041970635473e+04 8.474624117557788850e+04 -5.000000000000000000e+03
-3.566182677673595754e+04 8.477401515107223531e+04 -7.000000000000000000e+03
-3.572593283295544825e+04 8.480178893045354926e+04 -9.000000000000000000e+03
-4.038686254408452078e+04 7.417989696309424471e+04 -1.000000000000000000e+03
-4.045060312632835121e+04 7.420848047045635758e+04 -3.000000000000000000e+03
-4.051434339938836638e+04 7.423706460767527460e+04 -5.000000000000000000e+03
-4.057808312000298611e+04 7.426564909698913107e+04 -7.000000000000000000e+03
-4.064182277740683639e+04 7.429423366303056537e+04 -9.000000000000000000e+03
-4.531293875152630062e+04 6.367121993812612345e+04 -1.000000000000000000e+03
-4.537631149365801684e+04 6.370061351334573556e+04 -3.000000000000000000e+03
-4.543968367749107711e+04 6.373000743568531470e+04 -5.000000000000000000e+03
-4.550305554649798432e+04 6.375940198311283893e+04 -7.000000000000000000e+03
-4.556642734641410789e+04 6.378879687966854544e+04 -9.000000000000000000e+03
-5.024769712397309195e+04 5.316464925843897072e+04 -1.000000000000000000e+03
-5.031070057581533911e+04 5.319485244775323372e+04 -3.000000000000000000e+03
-5.037370346407427860e+04 5.322505597948142531e+04 -5.000000000000000000e+03
-5.043670603222613136e+04 5.325526013158937712e+04 -7.000000000000000000e+03
-5.049970852600167564e+04 5.328546462811990932e+04 -9.000000000000000000e+03
-5.500100946552966343e+04 4.341179742734992033e+04 -1.000000000000000000e+03
-5.506321470644460351e+04 4.344342721449700912e+04 -3.000000000000000000e+03
-5.512541961877309222e+04 4.347505733612534823e+04 -5.000000000000000000e+03
-5.518762444752900046e+04 4.350668779342740891e+04 -7.000000000000000000e+03
-5.524982870268438273e+04 4.353831858403154183e+04 -9.000000000000000000e+03
-5.957195097199959127e+04 3.441249409592636948e+04 -1.000000000000000000e+03
-5.963292856605486304e+04 3.444616689456388849e+04 -3.000000000000000000e+03
-5.969390581796116749e+04 3.447984001466784684e+04 -5.000000000000000000e+03
-5.975488272753082856e+04 3.451351345615116588e+04 -7.000000000000000000e+03
-5.981585905138793896e+04 3.454718694096326362e+04 -9.000000000000000000e+03
-6.414969323413683014e+04 2.541494362036099847e+04 -1.000000000000000000e+03
-6.420943973314754840e+04 2.545065839138953015e+04 -3.000000000000000000e+03
-6.426918587886402383e+04 2.548637319425413443e+04 -5.000000000000000000e+03
-6.432893142453664041e+04 2.552208830463522463e+04 -7.000000000000000000e+03
-6.438867661526489974e+04 2.555780372381927009e+04 -9.000000000000000000e+03
-6.873421069911611266e+04 1.641913551380638091e+04 -1.000000000000000000e+03
-6.879272242998366710e+04 1.645689094765791742e+04 -3.000000000000000000e+03
-6.885123404129818664e+04 1.649464640247019997e+04 -5.000000000000000000e+03
-6.890974528428474150e+04 1.653240243069897406e+04 -7.000000000000000000e+03
-6.896825591346358124e+04 1.657015903088977575e+04 -9.000000000000000000e+03
-7.332547782026547065e+04 7.425059210636714852e+03 -1.000000000000000000e+03
-7.338275161774852313e+04 7.464854285286709455e+03 -3.000000000000000000e+03
-7.344002528314471419e+04 7.504649645849295666e+03 -5.000000000000000000e+03
-7.349729832171418821e+04 7.544445843225019416e+03 -7.000000000000000000e+03
-7.355457098455034429e+04 7.584242048203689592e+03 -9.000000000000000000e+03
-7.885867185300165147e+04 -2.480411956194004688e+02 -1.000000000000000000e+03
-7.891413321032183012e+04 -2.059502560133925044e+02 -3.000000000000000000e+03
-7.896959418307716260e+04 -1.638593255742932797e+02 -5.000000000000000000e+03
-7.902505452185784816e+04 -1.217678519416872405e+02 -7.000000000000000000e+03
-7.908051471978795598e+04 -7.967610895453105968e+01 -9.000000000000000000e+03
-8.533383669208482024e+04 -6.599341076588476426e+03 -1.000000000000000000e+03
-8.538690998496543034e+04 -6.554699363617790368e+03 -3.000000000000000000e+03
-8.543998288719551056e+04 -6.510057680805210111e+03 -5.000000000000000000e+03
-8.549305539687868441e+04 -6.465415751193768301e+03 -7.000000000000000000e+03
-8.554612751211170689e+04 -6.420773297821457163e+03 -9.000000000000000000e+03
-9.181581884534737037e+04 -1.294727246448586811e+04 -1.000000000000000000e+03
-9.186649893226003041e+04 -1.290008278701304880e+04 -3.000000000000000000e+03
-9.191717862242835690e+04 -1.285289288274926002e+04 -5.000000000000000000e+03
-9.196785816200828413e+04 -1.280570274974903987e+04 -7.000000000000000000e+03
-9.201853730264598562e+04 -1.275851211299008901e+04 -9.000000000000000000e+03
-9.830460435787707684e+04 -1.929184991583536612e+04 -1.000000000000000000e+03
-9.835288611033953202e+04 -1.924211451216140995e+04 -3.000000000000000000e+03
-9.840116746372824127e+04 -1.919237890072345544e+04 -5.000000000000000000e+03
-9.844944891281556920e+04 -1.914264335446151017e+04 -7.000000000000000000e+03
-9.849772996062878519e+04 -1.909290732346691948e+04 -9.000000000000000000e+03
-1.048001790807589277e+05 -2.563308805521367321e+04 -1.000000000000000000e+03
-1.048460576359420957e+05 -2.558080942164250155e+04 -3.000000000000000000e+03
-1.048919357915765722e+05 -2.552853059836879038e+04 -5.000000000000000000e+03
-1.049378135498442280e+05 -2.547625186247032980e+04 -7.000000000000000000e+03
-1.049836911549734796e+05 -2.542397293465939583e+04 -9.000000000000000000e+03
-1.128256635152784875e+05 -3.233715423545317390e+04 -1.000000000000000000e+03
-1.128703933614445559e+05 -3.228364917778540985e+04 -3.000000000000000000e+03
-1.129151228085076000e+05 -3.223014393847886095e+04 -5.000000000000000000e+03
-1.129598516100272973e+05 -3.217663851972354678e+04 -7.000000000000000000e+03
-1.130045802588540973e+05 -3.212313291712111095e+04 -9.000000000000000000e+03
-1.223832711963308102e+05 -3.940212402795761591e+04 -1.000000000000000000e+03
-1.224281093896184902e+05 -3.934870774921764678e+04 -3.000000000000000000e+03
-1.224729471842504572e+05 -3.929529128738009604e+04 -5.000000000000000000e+03
-1.225177845802169759e+05 -3.924187464244078728e+04 -7.000000000000000000e+03
-1.225626215775124438e+05 -3.918845781439291022e+04 -9.000000000000000000e+03
-1.319520780438265356e+05 -4.645993062054314214e+04 -1.000000000000000000e+03
-1.319970251163392095e+05 -4.640660295522412343e+04 -3.000000000000000000e+03
-1.320419717906600272e+05 -4.635327510534570320e+04 -5.000000000000000000e+03
-1.320869180667792389e+05 -4.629994707090397424e+04 -7.000000000000000000e+03
-1.321318639446903253e+05 -4.624661885189133318e+04 -9.000000000000000000e+03
-1.415320657811389538e+05 -5.351060935053067806e+04 -1.000000000000000000e+03
-1.415771222644696827e+05 -5.345737013399435091e+04 -3.000000000000000000e+03
-1.416221783500859456e+05 -5.340413073143201473e+04 -5.000000000000000000e+03
-1.416672342850042041e+05 -5.335089113988951431e+04 -7.000000000000000000e+03
-1.417122895751647884e+05 -5.329765136525968410e+04 -9.000000000000000000e+03
-1.511232160901595780e+05 -6.055419570235673018e+04 -1.000000000000000000e+03
-1.511683827625804697e+05 -6.050104476770894689e+04 -3.000000000000000000e+03
-1.512135490377767419e+05 -6.044789364556308283e+04 -5.000000000000000000e+03
-1.512587149155860534e+05 -6.039474233609970543e+04 -7.000000000000000000e+03
-1.513038801491291961e+05 -6.034159084207797423e+04 -9.000000000000000000e+03
-1.593898896143484162e+05 -6.760518822853747406e+04 -1.000000000000000000e+03
-1.594351842792382231e+05 -6.755214292048053176e+04 -3.000000000000000000e+03
[...]
POINT_DATA 400
SCALARS fault_number int
LOOKUP_TABLE default
5
5
5
5
5
5
5
5
5
5
5
5
5
5
5
5
5
5
5
5
5
5
5
5
5
5
5
5
5
5
5
5
5
5
5
5
5
5
5
5
5
5
5
5
5
5
5
5
5
5
5
5
5
5
5
5
5
5
5
5
5
5
5
5
5
5
5
5
5
5
5
5
5
5
5
5
5
5
5
5
5
5
5
5
5
5
5
5
5
5
5
5
5
5
5
5
5
5
5
5
5
5
5
5
5
5
5
5
5
5
5
5
5
5
5
5
5
5
5
5
5
5
5
5
5
5
5
5
5
5
5
5
5
5
5
5
5
5
5
5
5
5
5
5
5
5
5
5
5
5
5
5
5
5
5
5
5
5
5
5
5
5
5
5
5
5
5
5
5
5
5
5
5
5
5
5
5
5
5
5
5
5
5
5
5
5
5
5
5
5
5
5
5
5
5
5
5
5
5
5
5
5
5
5
5
5
5
5
5
5
5
5
5
5
5
5
5
5
5
5
5
5
5
5
5
5
5
5
5
5
5
5
5
5
5
5
5
5
5
5
5
5
5
5
5
5
5
5
5
5
5
5
5
5
5
5
5
5
5
5
5
5
5
5
5
5
5
5
5
5
5
5
5
5
5
5
5
5
5
5
5
5
5
5
5
5
5
5
5
5
5
5
5
5
5
5
5
5
5
5
5
5
5
5
5
5
5
5
5
5
5
5
5
5
5
5
5
5
5
5
5
5
5
5
5
5
5
5
5
5
5
5
5
5
5
5
5
5
5
5
5
5
5
5
5
5
5
5
5
5
5
5
5
5
5
5
5
5
5
5
5
5
5
5
5
5
5
5
5
5
5
5
5
5
5
5
5
5
5
5
5
5
5
5
5
5
5
5
5
5
5
5
5
5
5
5
5
5
5
5
SCALARS effective_shear_modulus float
LOOKUP_TABLE default
2.411708732011179733e+10
3.023827274702432632e+10
3.361195713936228943e+10
3.483807579060456085e+10
3.536158622010227203e+10
2.470157890438471222e+10
3.070369618968095779e+10
3.402051362572170258e+10
3.537738809036285400e+10
3.614616979279879761e+10
2.558129310685471344e+10
3.147851883980963898e+10
3.470974560974775696e+10
3.616209646245167542e+10
3.713855398515613556e+10
2.681533464597978973e+10
3.236266351719235611e+10
3.519704527907069397e+10
3.649777077676080322e+10
3.748734200260499573e+10
2.814071402639918900e+10
3.293440528782080078e+10
3.494389335536492920e+10
3.567864752208464050e+10
3.626386735167939758e+10
3.000248849278506470e+10
3.376308390213198853e+10
3.467582373965756989e+10
3.468671752544168854e+10
3.476673839564554596e+10
3.223877643380715561e+10
3.486368104346984100e+10
3.458586187933043671e+10
3.383921566066925430e+10
3.339434078557776642e+10
3.095565768514500046e+10
3.407470042201809311e+10
3.440140944430906677e+10
3.406996935605506897e+10
3.394401280109603500e+10
2.875148816258267212e+10
3.279285148177231979e+10
3.429719885562884903e+10
3.483494425010155487e+10
3.543309296504244995e+10
2.724087762156772614e+10
3.219273297931383514e+10
3.479000149164417267e+10
3.604741741861903381e+10
3.717163171829724121e+10
2.861567857846358109e+10
3.382017977832549286e+10
3.629322899383637238e+10
3.702475570214919281e+10
3.738601361614022064e+10
2.938239094442404175e+10
3.459936594360553741e+10
3.685611103541691589e+10
3.715892109775605774e+10
3.697713640859663391e+10
2.961200963017103195e+10
3.443274834663923645e+10
3.624920457882537842e+10
3.624300527139149475e+10
3.580707777247069550e+10
2.935289761187161636e+10
3.324928404567642212e+10
3.432171099626462555e+10
3.421160633618931580e+10
3.389111036650497818e+10
2.872251982962906265e+10
3.181829142175126648e+10
3.232737765963013458e+10
3.223295516744709015e+10
3.203933042785635757e+10
2.851620032087763977e+10
3.138055961267004395e+10
3.172578261575648880e+10
3.168906977257606125e+10
3.167061477122746658e+10
2.848935143617485046e+10
3.140526804109547424e+10
3.176281047531643677e+10
3.164354694315574646e+10
3.168611739764187622e+10
2.892805946442650986e+10
3.165198101138717651e+10
3.179461153294163895e+10
3.149808967182709122e+10
3.153480306958900070e+10
2.984637008048883438e+10
3.212345612289916611e+10
3.182071224007688522e+10
3.125245429633510208e+10
3.121648231220005417e+10
2.996338749293173981e+10
3.197730473726389313e+10
3.137629155097598648e+10
3.069696631514751816e+10
3.060549957263674927e+10
2.832146481595932007e+10
3.077021632793522263e+10
3.062203845190410233e+10
3.031723713968375778e+10
3.052906373048384094e+10
2.668219412315819168e+10
2.988473772996531677e+10
3.046180455754091263e+10
3.063577322782309341e+10
3.123163623627526093e+10
2.587128121919800568e+10
2.945622890388342285e+10
3.039287874396022797e+10
3.075083420277905655e+10
3.150380864862012482e+10
2.520709189120816803e+10
2.914905518667456055e+10
3.033050144556198883e+10
3.066891507637965012e+10
3.130171540977790833e+10
2.517593531616496277e+10
2.908864977227921295e+10
3.020108197662269211e+10
3.046765617267387390e+10
3.095289464025153351e+10
2.520913702252751541e+10
2.907737623665400314e+10
3.017936301088183594e+10
3.044343780262061691e+10
3.084406026454907227e+10
2.482003998936482620e+10
2.868380327182005692e+10
2.985180311951892853e+10
3.012701530022255707e+10
3.047259705191734695e+10
2.412733915724268341e+10
2.802982624141397858e+10
2.933083986511634445e+10
2.961463635138401031e+10
2.990477057354917526e+10
2.449173257672162247e+10
2.871516058464617538e+10
3.033817240231552505e+10
3.087662412836656189e+10
3.144070044497026825e+10
2.487152366896208572e+10
2.927528847168095779e+10
3.101309639188252640e+10
3.164344079639957428e+10
3.232061508509634018e+10
2.531458034590536880e+10
2.975670915549407578e+10
3.139184614917845154e+10
3.192757676634072495e+10
3.252487010983975983e+10
2.550702009537661743e+10
2.984863720558064270e+10
3.126772062463509369e+10
3.159527600787035370e+10
3.200070166255176926e+10
2.542252381294515228e+10
2.957713413585584259e+10
3.082785146410283661e+10
3.096612363915922165e+10
3.122337831021783066e+10
2.530717006939577484e+10
2.933230264839046478e+10
3.049525417047532272e+10
3.061230767483274460e+10
3.090758399142594147e+10
2.458751519196096420e+10
2.862363395861201096e+10
2.989977658232593155e+10
3.022680205128562927e+10
3.077369506575425720e+10
2.408869666170304489e+10
2.826379923513270187e+10
2.971673366997377014e+10
3.026849143405263901e+10
3.103368456795094299e+10
2.418255939203050995e+10
2.848097772408326721e+10
2.999901692037818527e+10
3.057038676862200928e+10
3.131726480200996399e+10
2.420545460966078186e+10
2.859265944462186813e+10
3.015132999179703903e+10
3.067808926902235413e+10
3.133709140342110825e+10
2.415718901498263931e+10
2.859785817360882950e+10
3.017208223261698151e+10
3.058968882687694931e+10
3.109192460278209305e+10
2.441977696507210159e+10
2.886572355155752182e+10
3.034761634602859116e+10
3.049534727938753510e+10
3.068987337989798737e+10
3.543063890733367920e+10
3.491890370358325958e+10
3.479289493203980255e+10
3.558581709632087708e+10
3.658909746028217316e+10
3.612984322649179077e+10
3.525540798408992767e+10
3.488546511606018066e+10
3.552316274682249451e+10
3.633570154292892456e+10
3.697821067097878265e+10
3.570065547244397736e+10
3.506131250972288513e+10
3.551762732188739777e+10
3.612096934639258575e+10
3.719553986816619110e+10
3.572126285666344452e+10
3.497943884728186035e+10
3.535642372090598297e+10
3.586631092687059784e+10
3.598388382576478577e+10
3.490707194274551392e+10
3.448004918733385468e+10
3.504435114439579010e+10
3.573535623048467255e+10
3.448251938170135498e+10
3.388608771500007629e+10
3.383163998498032761e+10
3.465422440495897675e+10
3.563360561195655823e+10
3.306778635129592133e+10
3.294214464324756241e+10
3.321823976207982254e+10
3.434428350083011627e+10
3.573869976066129303e+10
3.358828578720754242e+10
3.304446772016555786e+10
3.299033171673738861e+10
3.400813662476496887e+10
3.545833670952868652e+10
3.506698978230873108e+10
3.366442757314616013e+10
3.299123625669521713e+10
3.376452764849046707e+10
3.516108803786719513e+10
3.675841932592076111e+10
3.467454687575045776e+10
3.352554239603532791e+10
3.401665598416193771e+10
3.519340472723468781e+10
3.687011824075051117e+10
3.549924792781710052e+10
3.481290906030773163e+10
3.519341962413886261e+10
3.592378069707960510e+10
3.643601351929682922e+10
3.563245550300981903e+10
3.534417297430590057e+10
3.570259061980690765e+10
3.613300730336969757e+10
3.537644761391071320e+10
3.504537701312049866e+10
3.512280427651942444e+10
3.558030013142301941e+10
3.590122530470185852e+10
3.378179905830950546e+10
3.394528251589203262e+10
3.441643922594099426e+10
3.511025875366884613e+10
3.557140257768039703e+10
3.225426124775150299e+10
3.297880674113792419e+10
3.387901821273213577e+10
3.478384900690846252e+10
3.534889886047909546e+10
3.205337763174406433e+10
3.287478471033960342e+10
3.379896022502282333e+10
3.470640038259062958e+10
3.531307409204788971e+10
3.194756631818979263e+10
3.237537048501190567e+10
3.302241683192823792e+10
3.386527815041173553e+10
3.452461071145492554e+10
3.167187752457162476e+10
3.183200497867867661e+10
3.234654682255601883e+10
3.319245346653063202e+10
3.391666553436214828e+10
3.122703073169577026e+10
3.124490321393641281e+10
3.176686951148937988e+10
3.267953179163081360e+10
3.347661545030169296e+10
3.062223025711311340e+10
3.074077127349829865e+10
3.133610718010997772e+10
3.229319186543340683e+10
3.309134800833274460e+10
3.074034901987426376e+10
3.088791090837382126e+10
3.137962252726857376e+10
3.223793816431576157e+10
3.298223389484034729e+10
3.158540704448516083e+10
3.149727057641837311e+10
3.175300606890162659e+10
3.243139974760418320e+10
3.303226955251781464e+10
3.186219019390711594e+10
3.163734192019527054e+10
3.179905932551956177e+10
3.234038536516176987e+10
3.278135823557363510e+10
3.163007819485287857e+10
3.147627779881508255e+10
3.161077726971699905e+10
3.207059506165621185e+10
3.242667654994222260e+10
3.111991301193521500e+10
3.094998808272634125e+10
3.098452709791350555e+10
3.126344369420137787e+10
3.149991563424482727e+10
3.081370440174100113e+10
3.049747454014312363e+10
3.041883247424544525e+10
3.054167168211808014e+10
3.067329022314348984e+10
3.035948346073365402e+10
2.998913794095575714e+10
2.986526187721731949e+10
2.994245172553425980e+10
3.005759817871872711e+10
2.979595749808800888e+10
2.946168697567356110e+10
2.936177994146892548e+10
2.948746908181116867e+10
2.965777355680936813e+10
3.148528724182150269e+10
3.115153679601059341e+10
3.103633101757386398e+10
3.101439078016373444e+10
3.103957573927648163e+10
3.257311553240273285e+10
3.252576468729592514e+10
3.260887949723952866e+10
3.254160576446862030e+10
3.244504401763274765e+10
3.298540094253678513e+10
3.344472325493992615e+10
3.389681299474391937e+10
3.388603659279647446e+10
3.370758509594099426e+10
3.261834068342363739e+10
3.353919808667621994e+10
3.433913797218223953e+10
3.444623733844167328e+10
3.426669379444710541e+10
3.185492285875375748e+10
3.279275825921799088e+10
3.364872792084908295e+10
3.387479613791616440e+10
3.382795641988205338e+10
3.150395381072331238e+10
3.223328043177219391e+10
3.296913391609379959e+10
3.327509940887720871e+10
3.335576117048564148e+10
3.137712395430982590e+10
3.183894537265399933e+10
3.240140501501807785e+10
3.275799468830168915e+10
3.292596940610005951e+10
3.161851039755900192e+10
3.187925968794564056e+10
3.229034412788848877e+10
3.266711393309354782e+10
3.290447035937423706e+10
3.184687148439851379e+10
3.205256628428943253e+10
3.240317614473851776e+10
3.280796658670074081e+10
3.313498350544589233e+10
3.183814807772139740e+10
3.206186655811553192e+10
3.241125059122761536e+10
3.287554870903468704e+10
3.332075575444534683e+10
3.159175989484045029e+10
3.190680918037984848e+10
3.231444146657342148e+10
3.286954812712551117e+10
3.346128298908946228e+10
3.115003809119183350e+10
3.160839307025324631e+10
3.212116293472630310e+10
3.277926183844207382e+10
3.354897483020223999e+10
SCALARS density float
LOOKUP_TABLE default
2.588828566161064373e+03
2.670277904765078347e+03
2.709862875094872834e+03
2.724521829190058725e+03
2.734068364937631486e+03
2.607031322848012223e+03
2.686090903588850779e+03
2.723646167895399685e+03
2.738861015542019231e+03
2.751089642212422405e+03
2.628590727022913143e+03
2.705971035394569299e+03
2.741694123596185364e+03
2.757082526842978950e+03
2.771452738239799601e+03
2.650747192637393709e+03
2.723456380439572968e+03
2.753975543564376039e+03
2.766787319190806102e+03
2.780575076466097926e+03
2.663627497643302831e+03
2.724853206038303142e+03
2.744593092386400713e+03
2.750834035910858347e+03
2.759641279489298540e+03
2.684044544358477197e+03
2.727955361349485429e+03
2.731910574278420881e+03
2.729355713961483616e+03
2.732201983020181615e+03
2.712355264127236296e+03
2.733115966145954644e+03
2.716880403893137554e+03
2.704472101955632297e+03
2.701907722136922985e+03
2.705253198564893410e+03
2.728722203344635091e+03
2.716376426165449175e+03
2.709447101746311546e+03
2.713433466723575293e+03
2.683807858377788307e+03
2.722347057778997623e+03
2.725490726101775635e+03
2.730976359645656885e+03
2.746683828708667079e+03
2.663117865385709592e+03
2.722282180157269067e+03
2.744180974014066123e+03
2.759803030938873235e+03
2.781883514804229890e+03
2.670000883140557562e+03
2.740196392981711597e+03
2.767614170828388978e+03
2.776299240006233504e+03
2.784067522440995617e+03
2.672455787785134817e+03
2.748970777217910836e+03
2.779853827637527957e+03
2.783831326884740520e+03
2.781229863876389572e+03
2.675656420553150838e+03
2.749239443603355539e+03
2.777256992291727784e+03
2.777663589832139223e+03
2.769650188340198383e+03
2.682594669672817872e+03
2.741315916213246965e+03
2.757012131556801705e+03
2.755253470388009191e+03
2.750614854329642640e+03
2.678672057076465990e+03
2.729430750883662313e+03
2.740111000532592698e+03
2.740873821993622641e+03
2.743216328318360411e+03
2.669938521869081342e+03
2.718193112519245460e+03
2.727796038857186886e+03
2.732316421242707293e+03
2.742747106787626763e+03
2.672890526512344422e+03
2.715690948565622421e+03
2.719749579331553832e+03
2.720754300827994484e+03
2.730307054212089042e+03
2.692624160759939059e+03
2.727519484934551656e+03
2.722795753894141399e+03
2.717914225207056916e+03
2.724750616599456407e+03
2.729139423978684590e+03
2.753678719797469967e+03
2.736934561816568021e+03
2.723796194152032967e+03
2.726032621958449909e+03
2.746538864344000558e+03
2.760824709535972943e+03
2.733617488966725887e+03
2.714515536629486178e+03
2.712085721399116210e+03
2.707444671816562732e+03
2.731558469614037676e+03
2.715112380556718563e+03
2.703191236086006029e+03
2.703967614730596779e+03
2.669470325710711222e+03
2.710009058900712716e+03
2.709494400664609202e+03
2.706813462256558523e+03
2.713042239702091592e+03
2.661509158388507331e+03
2.709060330636727031e+03
2.711891329320214936e+03
2.707457134922639852e+03
2.710204580706745219e+03
2.662796953655315519e+03
2.713452973470246434e+03
2.714609328199035645e+03
2.703770359543948416e+03
2.698037526003507992e+03
2.669580295037250835e+03
2.709661148553949715e+03
2.701728664506968471e+03
2.687764016613910826e+03
2.680552452317097050e+03
2.659265426912982093e+03
2.693902915669083541e+03
2.685634193620207043e+03
2.677142285142968831e+03
2.677698920933141380e+03
2.636057201920766602e+03
2.671789128921921474e+03
2.668433925605967033e+03
2.664718785103468235e+03
2.670632220127836263e+03
2.600154608441735036e+03
2.642900751732741355e+03
2.649473271218845184e+03
2.650528992712296713e+03
2.660318355887487996e+03
2.622774325723183665e+03
2.665939595778032981e+03
2.671011316051761241e+03
2.672385108392837537e+03
2.683377704779101805e+03
2.647166440629689532e+03
2.690644268872180874e+03
2.692983789424957649e+03
2.692880524216962840e+03
2.702476036802693670e+03
2.672581873192481908e+03
2.715816586660207577e+03
2.714071182858631346e+03
2.710514223242326352e+03
2.716035754379016907e+03
2.685003034897440557e+03
2.727716647906136586e+03
2.722761614651450600e+03
2.715871142195445827e+03
2.717219150138963414e+03
2.672235012130335690e+03
2.714452440378963274e+03
2.709706073180119802e+03
2.702158279575368397e+03
2.702710614705976695e+03
2.657552404668408144e+03
2.700762550167967220e+03
2.697996926580725358e+03
2.690704028329756056e+03
2.691230385644472335e+03
2.636818973414026914e+03
2.685443929057921650e+03
2.688542231493391228e+03
2.682835216223746102e+03
2.683024843520865943e+03
2.626054039361186369e+03
2.682164282421554162e+03
2.691526174495496434e+03
2.687034426837779847e+03
2.686137312622734953e+03
2.629209326541864357e+03
2.690740510120756880e+03
2.703360318379155160e+03
2.698497226377566221e+03
2.695858184410761169e+03
2.631850956781258446e+03
2.698195589986587038e+03
2.713718406390905329e+03
2.708427921868003978e+03
2.704104295034161623e+03
2.633978930043174387e+03
2.704529521811769428e+03
2.722600439030130929e+03
2.716826513423362030e+03
2.710875644602926059e+03
2.638678895751957043e+03
2.709119307104514519e+03
2.726565893315707854e+03
2.720440004067360405e+03
2.714604051708690804e+03
2.735079203894020793e+03
2.725819305823014474e+03
2.724684544501207711e+03
2.739888266647592900e+03
2.760870128056375961e+03
2.749950331524316425e+03
2.733969840259636385e+03
2.729079478577188183e+03
2.741950264458086622e+03
2.759350316798328549e+03
2.767764915511014351e+03
2.744757332291948842e+03
2.735903794201485198e+03
2.746403479756453180e+03
2.760202184042338558e+03
2.774415845834769243e+03
2.747594795525076279e+03
2.736793833098184223e+03
2.746218990221347212e+03
2.758453704093273700e+03
2.754102669753934606e+03
2.733706386524481331e+03
2.727357919487366871e+03
2.739681312872321996e+03
2.755108243811230750e+03
2.728000956816386861e+03
2.716603276766980343e+03
2.716682905144168672e+03
2.733578044786589089e+03
2.754246627366097073e+03
2.700771814766665557e+03
2.701385599178986467e+03
2.710401493276335714e+03
2.734214467307052928e+03
2.762802218397194338e+03
2.714909516546859777e+03
2.714116194613918196e+03
2.721039200319746669e+03
2.742733165674170777e+03
2.770610365038344753e+03
2.752648350413375738e+03
2.748271784944011870e+03
2.750835529820380543e+03
2.767655644415539882e+03
2.791165612127265831e+03
2.789097700720039484e+03
2.780478604336132321e+03
2.778650507447287055e+03
2.790139450851697347e+03
2.807652448304554127e+03
2.780179480006143422e+03
2.765081322770124643e+03
2.759704740909453903e+03
2.769678313826874728e+03
2.785563401284165138e+03
2.769144858098109580e+03
2.749228888068584183e+03
2.740839450248088269e+03
2.749438151294089948e+03
2.763923054070371109e+03
2.754730153743506435e+03
2.734824353957842504e+03
2.726053011099022569e+03
2.733766061613824149e+03
2.746488786450771386e+03
2.743128319547166939e+03
2.732246277820504019e+03
2.729005283149375828e+03
2.737557523562446022e+03
2.747659595510231156e+03
2.743164597241149750e+03
2.736869988078306051e+03
2.736138491122123924e+03
2.745430652380737229e+03
2.753439503594904181e+03
2.748571888950946231e+03
2.743651869105005062e+03
2.742923897435347953e+03
2.750827298526671257e+03
2.756314319065660584e+03
2.734854195073182836e+03
2.729461130594360839e+03
2.728168932469589890e+03
2.733563963960528326e+03
2.736383177505073945e+03
2.726766954273182819e+03
2.719676294528457220e+03
2.717108651440211815e+03
2.720590871548312407e+03
2.721687799332056329e+03
2.724122520369436188e+03
2.714079193946799023e+03
2.709581533274377762e+03
2.711842921906032643e+03
2.712281249020106770e+03
2.709160368981174543e+03
2.702472724604738687e+03
2.701524779033209597e+03
2.707026394886799153e+03
2.710749296229452284e+03
2.703364038471083859e+03
2.699129260970729320e+03
2.700548352319980040e+03
2.709571616706314217e+03
2.717982784711819477e+03
2.713554292262966555e+03
2.705566128609249972e+03
2.705226745885225682e+03
2.716891899295570965e+03
2.729287685311230689e+03
2.707994954965359739e+03
2.697378688926967698e+03
2.695062825157561747e+03
2.706714753095404376e+03
2.720205671079866988e+03
2.691913884521682121e+03
2.681170499099113840e+03
2.678523089525698651e+03
2.691429991850412080e+03
2.708970202760059237e+03
2.674773924069007080e+03
2.668057968679525402e+03
2.667739002004629583e+03
2.679617079256786838e+03
2.696571930189961677e+03
2.676656577238109548e+03
2.673440471930276090e+03
2.675347236057391001e+03
2.685176784487806799e+03
2.698338952126266122e+03
2.673282361264719839e+03
2.672482718397981898e+03
2.676421106343194879e+03
2.686095539691913473e+03
2.698948113608508265e+03
2.666304288668029130e+03
2.667584306903922879e+03
2.673766930601524564e+03
2.684957247490107420e+03
2.700372941457229444e+03
2.689184856030869014e+03
2.690880014244332415e+03
2.696647422254894082e+03
2.705655990663090961e+03
2.717972903654987022e+03
2.706892682872409750e+03
2.708597440550326610e+03
2.714423041668833321e+03
2.722634394012606208e+03
2.733461536127329509e+03
2.717836247591531901e+03
2.719067509541308937e+03
2.725376967096596218e+03
2.734410858744526195e+03
2.745859638677112343e+03
2.717364097062240489e+03
2.719197308087911551e+03
2.726634592026279279e+03
2.736466464075799649e+03
2.748299971844080574e+03
2.705007285123973816e+03