# vtk DataFile Version 2.0
Sampled points
ASCII
DATASET UNSTRUCTURED_GRID
POINTS 1200 double
4.192052666389049409e+04 -1.280427122866917343e+05 -5.000000000000000000e+02
4.194677377283095848e+04 -1.280197475852968637e+05 -1.500000000000000000e+03
4.197302053867390350e+04 -1.279967831050966342e+05 -2.500000000000000000e+03
4.199926745730725816e+04 -1.279738185675389832e+05 -3.500000000000000000e+03
4.202551452794083889e+04 -1.279508536956477037e+05 -4.500000000000000000e+03
3.789333178379188030e+04 -1.235611013410148298e+05 -5.000000000000000000e+02
3.792001444754438126e+04 -1.235386688347716408e+05 -1.500000000000000000e+03
3.794669701718045690e+04 -1.235162365470852237e+05 -2.500000000000000000e+03
3.797337974016039516e+04 -1.234938042002704460e+05 -3.500000000000000000e+03
3.800006236726392672e+04 -1.234713715182165324e+05 -4.500000000000000000e+03
3.386899514699421707e+04 -1.190782108076588192e+05 -5.000000000000000000e+02
3.389611298409319716e+04 -1.190563107851302193e+05 -1.500000000000000000e+03
3.392323072681618214e+04 -1.190344107024543919e+05 -2.500000000000000000e+03
3.395034812770815915e+04 -1.190125108371615206e+05 -3.500000000000000000e+03
3.397746543422270042e+04 -1.189906109117200685e+05 -4.500000000000000000e+03
2.984752128040758544e+04 -1.145940363500420644e+05 -5.000000000000000000e+02
2.987507341101177008e+04 -1.145726691025722394e+05 -1.500000000000000000e+03
2.990262569599748895e+04 -1.145513017925610475e+05 -2.500000000000000000e+03
2.993017763983735858e+04 -1.145299346980894043e+05 -3.500000000000000000e+03
2.995772924191650236e+04 -1.145085675421795313e+05 -4.500000000000000000e+03
2.582891546366032708e+04 -1.101085736425306677e+05 -5.000000000000000000e+02
2.585690125508587153e+04 -1.100877397390872793e+05 -1.500000000000000000e+03
2.588488720164566621e+04 -1.100669057712233625e+05 -2.500000000000000000e+03
2.591287305474105597e+04 -1.100460714625904075e+05 -3.500000000000000000e+03
2.594085856682720987e+04 -1.100252370906399592e+05 -4.500000000000000000e+03
2.238797741201999452e+04 -1.054293053348159738e+05 -5.000000000000000000e+02
2.241640666164138747e+04 -1.054090859571420151e+05 -1.500000000000000000e+03
2.244483557160410419e+04 -1.053888665140402009e+05 -2.500000000000000000e+03
2.247326438926652554e+04 -1.053686467281934310e+05 -3.500000000000000000e+03
2.250169336303687305e+04 -1.053484268760829000e+05 -4.500000000000000000e+03
1.952438282445842196e+04 -1.005565402170456509e+05 -5.000000000000000000e+02
1.955326481576421065e+04 -1.005370165147976513e+05 -1.500000000000000000e+03
1.958214646900063963e+04 -1.005174927450459800e+05 -2.500000000000000000e+03
1.961102803245640098e+04 -1.004979691842757311e+05 -3.500000000000000000e+03
1.963990975320610596e+04 -1.004784452782616718e+05 -4.500000000000000000e+03
1.666301263197097433e+04 -9.568310101164768275e+04 -5.000000000000000000e+02
1.669234669407293768e+04 -9.566427348884896492e+04 -1.500000000000000000e+03
1.672168066767918572e+04 -9.564544589601151529e+04 -2.500000000000000000e+03
1.675101430550278747e+04 -9.562661851034130086e+04 -3.500000000000000000e+03
1.678034785408421885e+04 -9.560779050082179310e+04 -4.500000000000000000e+03
1.380387144575299499e+04 -9.080898520575523435e+04 -5.000000000000000000e+02
1.383365690549584906e+04 -9.079085409042269748e+04 -1.500000000000000000e+03
1.386344227853218763e+04 -9.077272290289148805e+04 -2.500000000000000000e+03
1.389322731717138959e+04 -9.075459164346364560e+04 -3.500000000000000000e+03
1.392301226876211695e+04 -9.073646003493087483e+04 -4.500000000000000000e+03
1.094696412710488221e+04 -8.593419084876979468e+04 -5.000000000000000000e+02
1.097720006145819025e+04 -8.591675637023182935e+04 -1.500000000000000000e+03
1.100743591099538025e+04 -8.589932181729278818e+04 -2.500000000000000000e+03
1.103767192299692033e+04 -8.588188691285150708e+04 -3.500000000000000000e+03
1.106790785039677212e+04 -8.586445221091533313e+04 -4.500000000000000000e+03
8.191150430453462832e+03 -8.105960923350090161e+04 -5.000000000000000000e+02
8.221627298944844370e+03 -8.104255082935852988e+04 -1.500000000000000000e+03
8.252104083581703890e+03 -8.102549234959005844e+04 -2.500000000000000000e+03
8.282580784402764039e+03 -8.100843379414457013e+04 -3.500000000000000000e+03
8.313057401428068260e+03 -8.099137516306951875e+04 -4.500000000000000000e+03
5.536356224846550504e+03 -7.618528179584241298e+04 -5.000000000000000000e+02
5.566864549836436709e+03 -7.616827880393233499e+04 -1.500000000000000000e+03
5.597372790954227639e+03 -7.615127573617041344e+04 -2.500000000000000000e+03
5.627880700957292902e+03 -7.613427286960469792e+04 -3.500000000000000000e+03
5.658388526932241803e+03 -7.611726965027599363e+04 -4.500000000000000000e+03
2.883652353655427760e+03 -7.131035689039566205e+04 -5.000000000000000000e+02
2.914191832347715717e+03 -7.129340961739439808e+04 -1.500000000000000000e+03
2.944731227150754876e+03 -7.127646226831490640e+04 -2.500000000000000000e+03
2.975270538065782148e+03 -7.125951484315609559e+04 -3.500000000000000000e+03
3.005810012292663487e+03 -7.124256734188320115e+04 -4.500000000000000000e+03
2.330431654875532104e+02 -6.643483316737880523e+04 -5.000000000000000000e+02
2.636137421923844499e+02 -6.641794164291242487e+04 -1.500000000000000000e+03
2.941844821196556268e+02 -6.640104976524630911e+04 -2.500000000000000000e+03
3.247551381428881427e+02 -6.638415781127312221e+04 -3.500000000000000000e+03
3.553257103352594868e+02 -6.636726605785232096e+04 -4.500000000000000000e+03
-2.415466990182556401e+03 -6.155870845391666808e+04 -5.000000000000000000e+02
-2.384865124241726789e+03 -6.154187243081783527e+04 -1.500000000000000000e+03
-2.354263095093397169e+03 -6.152503605429035088e+04 -2.500000000000000000e+03
-2.323661396954133124e+03 -6.150819987806933932e+04 -3.500000000000000000e+03
-2.293059782856195397e+03 -6.149136390227935044e+04 -4.500000000000000000e+03
-4.696791053569575524e+03 -5.743317171262452757e+04 -5.000000000000000000e+02
-4.666147945905253437e+03 -5.741640998649788526e+04 -1.500000000000000000e+03
-4.635504922077656374e+03 -5.739964818357011245e+04 -2.500000000000000000e+03
-4.604862229176566871e+03 -5.738288658068273799e+04 -3.500000000000000000e+03
-4.574219373107544925e+03 -5.736612490106635960e+04 -4.500000000000000000e+03
-6.611451585693971538e+03 -5.405836636580714548e+04 -5.000000000000000000e+02
-6.580757533086711192e+03 -5.404169800654756546e+04 -1.500000000000000000e+03
-6.550063564134954504e+03 -5.402502957018287270e+04 -2.500000000000000000e+03
-6.519369678838766049e+03 -5.400836105671370751e+04 -3.500000000000000000e+03
-6.488675877198304079e+03 -5.399169246613820724e+04 -4.500000000000000000e+03
-8.525055530216506668e+03 -5.068324503403629205e+04 -5.000000000000000000e+02
-8.494310593044940106e+03 -5.066667006626422517e+04 -1.500000000000000000e+03
-8.463565739345160182e+03 -5.065009502108274319e+04 -2.500000000000000000e+03
-8.432820969115971820e+03 -5.063351989849264646e+04 -3.500000000000000000e+03
-8.402076035556850911e+03 -5.061694469868034503e+04 -4.500000000000000000e+03
-1.043760114223342134e+04 -4.730780704036404495e+04 -5.000000000000000000e+02
-1.040680538100775448e+04 -4.729132548874836357e+04 -1.500000000000000000e+03
-1.037600970306770432e+04 -4.727484385941772780e+04 -2.500000000000000000e+03
-1.034521386167849050e+04 -4.725836215260094468e+04 -3.500000000000000000e+03
-1.031441810350737433e+04 -4.724188036802856368e+04 -4.500000000000000000e+03
-1.234908692323541254e+04 -4.393205170953281049e+04 -5.000000000000000000e+02
-1.231824015193132800e+04 -4.391566359905886202e+04 -1.500000000000000000e+03
-1.228739346372520049e+04 -4.389927541056298651e+04 -2.500000000000000000e+03
-1.225654685854869604e+04 -4.388288714400525350e+04 -3.500000000000000000e+03
-1.222570058320357384e+04 -4.386649879919669183e+04 -4.500000000000000000e+03
-1.424927900423193751e+04 -4.036802566773958097e+04 -5.000000000000000000e+02
-1.421811507725909541e+04 -4.035241810124414042e+04 -1.500000000000000000e+03
-1.418695123072521164e+04 -4.033681073198745435e+04 -2.500000000000000000e+03
-1.415578771095074262e+04 -4.032120328277708904e+04 -3.500000000000000000e+03
-1.412462427092734652e+04 -4.030559547695535002e+04 -4.500000000000000000e+03
-1.613812239601530746e+04 -3.661572971689295082e+04 -5.000000000000000000e+02
-1.610637555115174109e+04 -3.660159016584417986e+04 -1.500000000000000000e+03
-1.607462878076205561e+04 -3.658745080897713342e+04 -2.500000000000000000e+03
-1.604288208450189813e+04 -3.657331136936812254e+04 -3.500000000000000000e+03
-1.601113546202750877e+04 -3.655917157009062066e+04 -4.500000000000000000e+03
-1.802579454332484966e+04 -3.286311677701655572e+04 -5.000000000000000000e+02
-1.799346536208313410e+04 -3.285044572712801164e+04 -1.500000000000000000e+03
-1.796113624827968306e+04 -3.283777431443909154e+04 -2.500000000000000000e+03
-1.792880744878723635e+04 -3.282510281549293722e+04 -3.500000000000000000e+03
-1.789647871759592817e+04 -3.281243150760067510e+04 -4.500000000000000000e+03
-1.991229308882661280e+04 -2.911018584391275363e+04 -5.000000000000000000e+02
-1.987938264703722234e+04 -2.909898322708223714e+04 -1.500000000000000000e+03
-1.984647226613281964e+04 -2.908778024424542673e+04 -2.500000000000000000e+03
-1.981356219298384531e+04 -2.907657717194690849e+04 -3.500000000000000000e+03
-1.978065218205544443e+04 -2.906537456442563052e+04 -4.500000000000000000e+03
-2.179761641518842953e+04 -2.535693646853516839e+04 -5.000000000000000000e+02
-2.176412554473828277e+04 -2.534720249469456758e+04 -1.500000000000000000e+03
-2.173063472875483058e+04 -2.533746842849366658e+04 -2.500000000000000000e+03
-2.169714396723503523e+04 -2.532773426993406611e+04 -3.500000000000000000e+03
-2.166365326065367117e+04 -2.531800029594263106e+04 -4.500000000000000000e+03
-2.310844435514478391e+04 -2.047575589669122564e+04 -5.000000000000000000e+02
-2.307454569948320204e+04 -2.046754505193205114e+04 -1.500000000000000000e+03
[...]
POINT_DATA 1200
SCALARS fault_number int
LOOKUP_TABLE default
3
3
3
3
3
3
3
3
3
3
3
3
3
3
3
3
3
3
3
3
3
3
3
3
3
3
3
3
3
3
3
3
3
3
3
3
3
3
3
3
3
3
3
3
3
3
3
3
3
3
3
3
3
3
3
3
3
3
3
3
3
3
3
3
3
3
3
3
3
3
3
3
3
3
3
3
3
3
3
3
3
3
3
3
3
3
3
3
3
3
3
3
3
3
3
3
3
3
3
3
3
3
3
3
3
3
3
3
3
3
3
3
3
3
3
3
3
3
3
3
3
3
3
3
3
3
3
3
3
3
3
3
3
3
3
3
3
3
3
3
3
3
3
3
3
3
3
3
3
3
3
3
3
3
3
3
3
3
3
3
3
3
3
3
3
3
3
3
3
3
3
3
3
3
3
3
3
3
3
3
3
3
3
3
3
3
3
3
3
3
3
3
3
3
3
3
3
3
3
3
3
3
3
3
3
3
3
3
3
3
3
3
3
3
3
3
3
3
3
3
3
3
3
3
3
3
3
3
3
3
3
3
3
3
3
3
3
3
3
3
3
3
3
3
3
3
3
3
3
3
3
3
3
3
3
3
3
3
3
3
3
3
3
3
3
3
3
3
3
3
3
3
3
3
3
3
3
3
3
3
3
3
3
3
3
3
3
3
3
3
3
3
3
3
3
3
3
3
3
3
3
3
3
3
3
3
3
3
3
3
3
3
3
3
3
3
3
3
3
3
3
3
3
3
3
3
3
3
3
3
3
3
3
3
3
3
3
3
3
3
3
3
3
3
3
3
3
3
3
3
3
3
3
3
3
3
3
3
3
3
3
3
3
3
3
3
3
3
3
3
3
3
3
3
3
3
3
3
3
3
3
3
3
3
3
3
3
3
3
3
3
3
3
3
3
3
3
3
3
3
3
3
3
3
3
3
3
3
3
3
3
3
3
3
3
3
3
3
3
3
3
3
3
3
3
3
3
3
3
3
3
3
3
3
3
3
3
3
3
3
3
3
3
3
3
3
3
3
3
3
3
3
3
3
3
3
3
3
3
3
3
3
3
3
3
3
3
3
3
3
3
3
3
3
3
3
3
3
3
3
3
3
3
3
3
3
3
3
3
3
3
3
3
3
3
3
3
3
3
3
3
3
3
3
3
3
3
3
3
3
3
3
3
3
3
3
3
3
3
3
3
3
3
3
3
3
3
3
3
3
3
3
3
3
3
3
3
3
3
3
3
3
3
3
3
3
3
3
3
3
3
3
3
3
3
3
3
3
3
3
3
3
3
3
3
3
3
3
3
3
3
3
3
3
3
3
3
3
3
3
3
3
3
3
3
3
3
3
3
3
3
3
3
3
3
3
3
3
3
3
3
3
3
3
3
3
3
3
3
3
3
3
3
3
3
3
3
3
3
3
3
3
3
3
3
3
3
3
3
3
3
3
3
3
3
3
3
3
3
3
3
3
3
3
3
3
3
3
3
3
3
3
3
3
3
3
3
3
3
3
3
3
3
3
3
3
3
3
3
3
3
3
3
3
3
3
3
3
3
3
3
3
3
3
3
3
3
3
3
3
3
3
3
3
3
3
3
3
3
3
3
3
3
3
3
3
3
3
3
3
3
3
3
3
3
3
3
3
3
3
3
3
3
3
3
3
3
3
3
3
3
3
3
3
3
3
3
3
3
3
3
3
3
3
3
3
3
3
3
3
3
3
3
3
3
3
3
3
3
3
3
3
3
3
3
3
3
3
3
3
3
3
3
3
3
3
3
3
3
3
3
3
3
3
3
3
3
3
3
3
3
3
3
3
3
3
3
3
3
3
3
3
3
3
3
3
3
3
3
3
3
3
3
3
3
3
3
3
3
3
3
3
3
3
3
3
3
3
3
3
3
3
3
3
3
3
3
3
3
3
3
3
3
3
3
3
3
3
3
3
3
3
3
3
3
3
3
3
3
3
3
3
3
3
3
3
3
3
3
3
3
3
3
3
3
3
3
3
3
3
3
3
3
3
3
3
3
3
3
3
3
3
3
3
3
3
3
3
3
3
3
3
3
3
3
3
3
3
3
3
3
3
3
3
3
3
3
3
3
3
3
3
3
3
3
3
3
3
3
3
3
3
3
3
3
3
3
3
3
3
3
3
3
3
3
3
3
3
3
3
3
3
3
3
3
3
3
3
3
3
3
3
3
3
3
3
3
3
3
3
3
3
3
3
3
3
3
3
3
3
3
3
3
3
3
3
3
3
3
3
3
3
3
3
3
3
3
3
3
3
3
3
3
3
3
3
3
3
3
3
3
3
3
3
3
3
3
3
3
3
3
3
3
3
3
3
3
3
3
3
3
3
3
3
3
3
3
3
3
3
3
3
3
3
3
3
3
3
3
3
3
3
3
3
3
3
3
3
3
3
3
3
3
3
3
3
3
3
3
3
3
3
3
3
3
3
3
3
3
3
3
3
3
3
3
3
3
3
3
3
3
3
3
3
3
3
3
3
3
3
3
3
3
3
3
3
3
3
3
3
3
3
3
3
3
3
3
3
3
3
3
3
3
3
3
3
3
3
3
3
3
3
3
3
3
3
3
3
3
3
3
3
3
3
3
3
3
3
3
3
3
3
3
3
3
3
3
3
3
3
3
3
3
3
3
3
3
3
3
3
3
3
3
3
3
3
3
3
3
3
3
3
3
3
3
3
3
3
3
3
3
3
3
3
3
3
3
3
3
3
SCALARS effective_shear_modulus float
LOOKUP_TABLE default
2.316199454820979309e+10
2.711559329996615982e+10
2.989950708219562149e+10
3.125290972417051697e+10
3.211024307869392395e+10
2.290091857283478546e+10
2.678904994098369598e+10
2.950032119645503235e+10
3.077842460512246704e+10
3.156115351868552399e+10
2.232427129018069077e+10
2.620114428417028809e+10
2.892791878042096329e+10
3.024596408652984238e+10
3.103213206427233124e+10
2.144597594449340820e+10
2.536197160344104385e+10
2.818815412892007446e+10
2.965707667430569458e+10
3.052226745795515823e+10
2.046566663627297974e+10
2.445916851383745575e+10
2.744145226697122192e+10
2.913183826828948975e+10
3.012835788058343124e+10
2.143112810685318756e+10
2.532857735447620392e+10
2.818302020516275787e+10
2.973273847805052567e+10
3.063933937731223679e+10
2.245584131682689667e+10
2.625410226150588608e+10
2.897741229591514969e+10
3.038285149380064392e+10
3.119544060298296356e+10
2.324831653527383423e+10
2.696668293045646286e+10
2.959632647282404327e+10
3.090881817913925934e+10
3.165806592084048462e+10
2.379416275148374176e+10
2.745651519183420181e+10
3.003358450978004074e+10
3.130716540973244476e+10
3.202498930917191315e+10
2.408384221712966919e+10
2.771709543721539307e+10
3.028490759223703766e+10
3.157521301981252289e+10
3.229434499284323883e+10
2.406867492904562378e+10
2.767894018376789856e+10
3.028277217137128830e+10
3.167510137874428558e+10
3.245996104856598663e+10
2.387524788543175507e+10
2.745986954321875000e+10
3.013096522827021790e+10
3.169229897366952515e+10
3.260396503406336975e+10
2.362488219293444824e+10
2.721121681303727722e+10
2.997104321683129883e+10
3.171443400277528763e+10
3.276521875997653580e+10
2.331858492894434357e+10
2.693344474563906097e+10
2.980308795278424454e+10
3.174151257205850601e+10
3.294385301556489563e+10
2.327448526856963348e+10
2.687274733200410461e+10
2.976841058006292725e+10
3.178210789730744553e+10
3.306140186122075272e+10
2.330265176364046478e+10
2.687119093695790863e+10
2.976078594613160706e+10
3.179739101680040359e+10
3.310761018888597107e+10
2.349975285507738495e+10
2.700819675084158707e+10
2.982534334607754135e+10
3.178109407613557816e+10
3.303237545552293015e+10
2.383016731127219391e+10
2.724142952171846008e+10
2.991671095687578964e+10
3.169082940300191879e+10
3.280458918306676865e+10
2.402645859330900574e+10
2.735407739593419647e+10
2.990931890804411316e+10
3.153112699098096466e+10
3.253450525987630463e+10
2.408663640486597061e+10
2.734523505380224228e+10
2.980321038284100723e+10
3.130264602083103561e+10
3.222283010853401947e+10
2.400429054454201889e+10
2.720774276913505936e+10
2.958964678199759293e+10
3.099411535617527390e+10
3.185634852180997849e+10
2.377028748789350128e+10
2.693393822251280594e+10
2.926292499368614578e+10
3.060206516974681091e+10
3.143324983046575165e+10
2.338992205579813766e+10
2.653070599724298859e+10
2.883235972963548279e+10
3.013893605981281281e+10
3.096784294101852417e+10
2.286774236501364136e+10
2.600185177705837250e+10
2.830097686671543121e+10
2.960690185580151367e+10
3.046147111225816345e+10
2.231982966729623032e+10
2.548403390550047302e+10
2.783281186062418747e+10
2.920407974827282333e+10
3.014192080565810394e+10
2.183647562667771149e+10
2.506014712764375687e+10
2.749245965581155396e+10
2.896592619472594452e+10
3.001906346372338104e+10
2.137456422960735321e+10
2.467039690627254105e+10
2.719850293038700485e+10
2.878499557441242981e+10
2.996351810367327499e+10
2.093594684519324493e+10
2.430072358733152390e+10
2.692123059055013275e+10
2.862097237553546524e+10
2.992770751357938004e+10
2.086340951791094589e+10
2.428226603607128143e+10
2.696562355844352722e+10
2.872928491230260086e+10
3.010967551843389511e+10
2.159742094994234467e+10
2.499130211120452881e+10
2.763865436123828888e+10
2.936150965980715561e+10
3.068111165156245804e+10
2.247547696564387894e+10
2.579414933773068237e+10
2.836175851864648438e+10
3.001133668136637115e+10
3.122518859316476440e+10
2.308803778043686295e+10
2.633248507463657379e+10
2.882934439378234482e+10
3.042090431703467941e+10
3.155140790093726730e+10
2.375083378525960159e+10
2.691307962035534286e+10
2.932917331100669479e+10
3.085072419993794632e+10
3.188674507098882294e+10
2.446587573346669769e+10
2.753731377975465012e+10
2.986210276713685989e+10
3.130123036898561096e+10
3.223133853366533279e+10
2.512015398930638123e+10
2.810821153294194031e+10
3.034750362920227432e+10
3.171012000057505035e+10
3.254537285031763458e+10
2.525000244584343719e+10
2.824365117859434891e+10
3.048789464515169144e+10
3.185430027065180588e+10
3.269060377098799896e+10
2.539630644959609985e+10
2.839767200669153214e+10
3.064857733567028046e+10
3.202063465295977402e+10
3.285658429797205734e+10
2.554307955659339142e+10
2.855221361030690384e+10
3.080982225808108902e+10
3.218751890155202866e+10
3.302301201761709595e+10
2.569032240702899551e+10
2.870727681958694839e+10
3.097163040905939865e+10
3.235495383242190552e+10
3.318988711453601837e+10
2.583803566204789734e+10
2.886286246423884583e+10
3.113400281111876297e+10
3.252294031850653458e+10
3.335720978158634186e+10
2.608316217852789307e+10
2.910337011007551193e+10
3.136400670119865417e+10
3.273825122755573654e+10
3.355382761466556931e+10
2.685683476123675537e+10
2.978784075497471619e+10
3.192332035702721786e+10
3.314245336671823883e+10
3.382189315033541870e+10
2.765505136466615295e+10
3.048899211903409958e+10
3.249124790789449310e+10
3.354795507931676865e+10
3.408650314989659500e+10
2.847851901774030304e+10
3.120936123692578888e+10
3.307177139835282516e+10
3.395925060107704163e+10
3.435112663902940369e+10
2.932796340707421875e+10
3.194941387225208664e+10
3.366512595841207123e+10
3.437640272497779083e+10
3.461574168990810394e+10
2.998051252400204468e+10
3.251915576030539322e+10
3.412321848398678589e+10
3.469987650096119690e+10
3.482313695899146271e+10
2.996660126178015900e+10
3.252933341156124878e+10
3.415996559864500427e+10
3.476406471015229797e+10
3.491293826413012695e+10
2.927375401605942917e+10
3.196561908381193161e+10
3.376063183838155365e+10
3.455532807123746490e+10
3.487408310299282837e+10
2.858364279135280609e+10
3.139538499747453690e+10
3.334558431163735199e+10
3.432269536214194107e+10
3.480762388039389801e+10
2.790746453213805389e+10
3.083142854231151962e+10
3.292901311364924240e+10
3.408114281088068390e+10
3.472688037942157745e+10
2.713503482353124619e+10
3.017572341968888855e+10
3.242908675243054199e+10
3.376813406268347168e+10
3.458918316135118103e+10
2.627671347877496338e+10
2.943250500865644836e+10
3.184305748367747879e+10
3.337339758940536118e+10
3.437790292894869232e+10
2.544545848646906281e+10
2.870122535250094986e+10
3.125231704947505951e+10
3.295667560742069626e+10
3.413061910037640762e+10
2.464063490684675217e+10
2.798186996045014572e+10
3.065728826315494537e+10
3.251857663698186111e+10
3.384784005926879501e+10
2.394005268087432480e+10
2.734607608854063797e+10
3.011550272527280426e+10
3.209471686014530945e+10
3.353857706924745178e+10
2.360871888047102737e+10
2.706662453391720581e+10
2.989432932172946930e+10
3.193334048665837860e+10
3.341221791899705887e+10
2.332927972289696503e+10
2.684624704836061478e+10
2.974469340838602829e+10
3.186157278467245483e+10
3.338875844497387695e+10
2.302190134469807434e+10
2.659462689293759155e+10
2.956198119120095444e+10
3.175651756459624863e+10
3.333338254562038040e+10
2.268733398207358170e+10
2.631236198638018799e+10
2.934661571139494324e+10
3.161841553791431808e+10
3.324621743280937958e+10
2.232639056303063965e+10
2.600011741029484558e+10
2.909908795770459366e+10
3.144757224099037170e+10
3.312744798575521088e+10
3.245060263804308701e+10
3.258227249869380569e+10
3.250396680537883759e+10
3.234777206166740417e+10
3.211408794773642349e+10
3.182990983706918716e+10
3.192917037419021606e+10
3.185821816436327744e+10
3.174065554269381332e+10
3.157654239914699936e+10
3.126606519706942749e+10
3.134371144868055344e+10
3.126469561574162674e+10
3.117568825400323868e+10
3.107650073673987198e+10
3.075694178090196991e+10
3.082340629664398956e+10
3.072151017079286194e+10
3.065149376189785004e+10
3.061293159310238266e+10
3.039502865996038818e+10
3.046218277183889389e+10
3.033023540717610550e+10
3.026992206912132263e+10
3.027996646076500702e+10
3.087098053158250427e+10
3.091238753719083023e+10
3.076321579614375305e+10
3.066989480726908493e+10
3.063170836143716812e+10
3.138927621080736160e+10
3.140484319422601318e+10
3.124191331425510025e+10
3.110801330904842377e+10
3.100259405312334442e+10
3.182134367364647675e+10
3.181396439068805695e+10
3.163580756841056824e+10
3.145794840189602280e+10
3.128009861291901398e+10
3.216523470428842926e+10
3.213789037506961441e+10
3.194296274653993225e+10
3.171781991770621490e+10
3.146258210823487091e+10
3.241928927446361160e+10
3.237506817148731613e+10
3.216184076879215622e+10
3.188622869574822998e+10
3.154897024829837418e+10
3.261014552279403687e+10
3.257549144774895859e+10
3.235601442960364914e+10
3.206288699235670090e+10
3.169764442399458694e+10
3.283217865254375458e+10
3.283478448607939529e+10
3.261169599005828476e+10
3.233335920975656891e+10
3.200092262960256577e+10
3.308189987716655731e+10
3.311755858772718048e+10
3.287189883227021408e+10
3.259246921999087906e+10
3.228003668489253998e+10
3.335965708055825806e+10
3.342416957497083282e+10
3.313673474904298401e+10
3.284014848558188248e+10
3.253475199000093460e+10
3.355091719085902786e+10
3.366009560027769470e+10
3.338529893899333954e+10
3.312108196043505478e+10
3.286763793819642639e+10
3.363537282428268814e+10
3.377820892945992661e+10
3.353151970989521408e+10
3.331056412868682480e+10
3.311541346188846207e+10
3.352792203155867004e+10
3.366969121229931259e+10
3.345413234706985855e+10
3.326964816915029144e+10
3.311613470519298553e+10
3.321509065193941498e+10
3.333921465070593262e+10
3.317412746028498840e+10
3.303745212309806061e+10
3.292918005834659958e+10
3.288293805788658524e+10
3.300825421303590393e+10
3.290799445178442764e+10
3.283308222858931732e+10
3.278361392635896683e+10
3.253193982168354797e+10
3.267697524538563538e+10
3.265569387800814056e+10
3.265640498677130508e+10
3.267931012501791382e+10
3.214786648160118103e+10
3.233116989463953400e+10
3.240422140162660980e+10
3.249575930463907623e+10
3.260608154994587326e+10
3.173010517692958069e+10
3.197111667123851776e+10
3.215458599403167343e+10
3.235301158651480865e+10
3.256676356772177124e+10
3.129362131443709183e+10
3.161137194930076218e+10
3.192000102343929672e+10
3.224019942468893051e+10
3.257236136783703995e+10
3.083906854221578979e+10
3.125207334275060272e+10
3.170035036287207031e+10
3.215716228697271347e+10
3.262285510055610657e+10
3.061859673610013580e+10
3.114472575827723312e+10
3.172058549213023758e+10
3.230267772664914703e+10
3.289122379058732605e+10
3.062137787530257416e+10
3.125279924368486404e+10
3.191353924539095688e+10
3.258140325483374786e+10
3.325655766373315811e+10
3.070092451778905106e+10
3.142907438632564545e+10
3.214730398151998901e+10
3.287592800075609589e+10
3.361516322763527679e+10
3.080309120837312698e+10
3.162641771527569199e+10
3.239555954548040390e+10
3.317946498385469055e+10
3.397846301344812775e+10
3.107091460191970825e+10
3.194218980810814667e+10
3.271893439063550186e+10
3.352011499661557388e+10
3.434625608902885056e+10
3.156282008939600372e+10
3.234840322254593658e+10
3.303360433902827454e+10
3.374319476686492538e+10
3.447779630930776215e+10
3.196977677242891693e+10
3.262988629363690948e+10
3.320234936089218140e+10
3.379511089510673523e+10
3.440875324045864105e+10
3.218824066895964813e+10
3.275074797448648834e+10
3.323660539856980896e+10
3.373989880673191071e+10
3.426121339583537674e+10
3.240622033895916748e+10
3.286427554021411896e+10
3.325952769120839691e+10
3.367048901934947586e+10
3.409777870328650665e+10
3.262369727319169998e+10
3.297041616074888229e+10
3.327109927339840698e+10
3.358693845011440659e+10
3.391860371616573334e+10
3.282660038750142670e+10
3.307289318916105652e+10
3.328464079535395432e+10
3.351487062679130936e+10
3.376620864271253967e+10
3.296949707317554092e+10
3.318286949797969818e+10
3.333089543212064743e+10
3.350274876258896255e+10
3.369914122545990753e+10
3.312972017191724396e+10
3.330591863467823410e+10
3.338524929586606598e+10
3.349352101320345306e+10
3.363124296796229172e+10
3.329023787580144119e+10
3.342903085620851517e+10
3.343951038547992325e+10
3.348419566838183212e+10
3.356336458458108902e+10
3.345104946454427338e+10
3.355220515972417068e+10
3.349367823045625687e+10
3.347477260356451416e+10
3.349550603282802963e+10
3.361215423759530258e+10
3.367544050643452454e+10
3.354775233392592621e+10
3.346525166380179596e+10
3.342766723720764923e+10
3.378624455831254196e+10
3.380208481064446640e+10
3.360399769113669968e+10
3.345580357323358536e+10
3.335691954891350174e+10
3.394179672406069183e+10
3.389586192639216995e+10
3.368467214110347748e+10
3.351549466914227295e+10
3.338736688636155319e+10
3.409199671797273636e+10
3.398717715536598206e+10
3.377201806062258530e+10
3.358993427340413284e+10
3.344064704994100571e+10
3.423715700959023666e+10
3.406984768943683624e+10
3.384875640685458755e+10
3.365394625024226379e+10
3.348530841942862701e+10
3.437723284014820099e+10
3.414383277954271698e+10
3.391432434394301605e+10
3.370368671164574814e+10
3.351199505945691681e+10
3.449001529114714813e+10
3.420481309847074509e+10
3.396548421013296509e+10
3.374019923025506210e+10
3.352917515016567993e+10
3.460294379629306793e+10
3.434328875352306366e+10
3.413178394657842255e+10
3.393359598324932861e+10
3.374872601852088928e+10
3.470962367551420593e+10
3.457129696901664734e+10
3.445953099137120819e+10
3.435756186726898956e+10
3.426530746432553101e+10
3.478836377803588104e+10
3.477312702530961609e+10
3.476257610976689911e+10
3.475774286080058289e+10
3.475869515493814850e+10
3.484925302233464050e+10
3.495414244995710754e+10
3.504216847490744781e+10
3.513285813178028107e+10
3.522639450723728943e+10
3.486945589769029236e+10
3.511002109934742737e+10
3.531111358115572357e+10
3.551317341734129333e+10
3.571648972005622864e+10
3.482732765338842773e+10
3.521438881071156311e+10
3.553852739771684265e+10
3.586429672340206909e+10
3.619210930080425262e+10
3.473856020390802002e+10
3.526235593649848175e+10
3.570033743125582123e+10
3.614288797136466980e+10
3.659058237452504730e+10
3.460337211805629730e+10
3.525375754935076141e+10
3.579594329385720062e+10
3.634781883955699158e+10
3.691018960218859863e+10
3.440023071665599060e+10
3.513180322868097687e+10
3.572880835802513123e+10
3.634199965787727356e+10
3.697240223491671753e+10
3.428010477963881683e+10
3.497569214291801453e+10
3.549326634267728424e+10
3.602582361257182312e+10
3.657412906910977936e+10
3.427044045535176086e+10
3.493475377882209015e+10
3.537474891317762756e+10
3.582639911116281128e+10
3.629018235556776428e+10
3.423161589546501923e+10
3.486681472605097198e+10
3.523087134283106995e+10
3.560449513397449493e+10
3.598792433598244476e+10
3.416371353549063492e+10
3.477198968996285248e+10
3.506184314783554840e+10
3.536039296212879181e+10
3.566767379416993713e+10
3.406686330165615082e+10
3.465043362506776428e+10
3.486790914228226471e+10
3.509440190381980896e+10
3.532976894701515961e+10
3.182205946320380402e+10
3.147347988418936157e+10
3.125397010719007874e+10
3.116192001726972961e+10
3.136212177690650558e+10
3.129231142648939514e+10
3.089050300253174591e+10
3.060813957130123901e+10
3.044338003146588516e+10
3.061324408578117752e+10
3.078678819050285721e+10
3.031001929182524872e+10
2.994546337865141296e+10
2.969092515904185867e+10
2.981574655429033279e+10
3.030485642686198425e+10
2.973205526451750565e+10
2.926675700571722794e+10
2.890630956277920914e+10
2.897219104085331726e+10
2.995107445323967743e+10
2.929089509082009506e+10
2.873842982464632416e+10
2.829065773109480286e+10
2.830562920171726227e+10
3.032463302035624313e+10
2.975296361254576111e+10
2.929659861483037186e+10
2.895271152451830673e+10
2.900978773773340607e+10
3.072143584814553452e+10
3.026720955597105408e+10
2.993663423705081177e+10
2.972751209288753510e+10
2.984900707755845261e+10
3.101550857503744888e+10
3.066553860285095596e+10
3.044411492583232880e+10
3.034972065510645676e+10
3.052645028225881195e+10
3.120492890852643967e+10
3.094506560223977280e+10
3.081491100725240707e+10
3.081359502248701096e+10
3.103559314665204239e+10
3.128846909614933395e+10
3.110379170486591339e+10
3.104604926045867538e+10
3.111492131787350082e+10
3.137161987906817245e+10
3.143132104416175842e+10
3.126135529543917465e+10
3.121221986470012283e+10
3.128371665335189056e+10
3.153100586079627228e+10
3.172264251644020081e+10
3.149654089655373764e+10
3.138661805045872879e+10
3.139233300921042252e+10
3.158380423463962936e+10
3.197695446969657898e+10
3.168184757254777145e+10
3.149856642621128845e+10
3.142617642416405869e+10
3.155585247909485626e+10
3.219387132945859909e+10
3.181683925482510757e+10
3.154768989388726807e+10
3.138504959758324051e+10
3.144715857461903381e+10
3.253321603526409912e+10
3.211786077002216339e+10
3.179788064092874908e+10
3.157218237429162216e+10
3.158835046334241867e+10
3.280879222251659393e+10
3.239099113717560196e+10
3.205985281700816345e+10
3.181436002622386932e+10
3.181614354986454010e+10
3.284723108837024307e+10
3.246367070196957397e+10
3.216122221616675949e+10
3.193904908245037079e+10
3.196174407994911575e+10
3.271737343401428986e+10
3.240250394596408081e+10
3.216251178003945541e+10
3.199688130586035919e+10
3.206896924954461288e+10
3.263476391862636948e+10
3.238681576944339752e+10
3.220823710899618530e+10
3.209879780825647736e+10
3.221807148491983414e+10
3.259937467347759628e+10
3.241670133537489700e+10
3.229860927158960724e+10
3.224512092533127594e+10