# vtk DataFile Version 2.0
Sampled points
ASCII
DATASET UNSTRUCTURED_GRID
POINTS 1010 double
-3.585408395577119518e+04 2.133896669028851320e+05 -1.000000000000000000e+03
-3.606102863336580049e+04 2.124833903649319254e+05 -3.000000000000000000e+03
-3.626800573158757470e+04 2.115771184807738755e+05 -5.000000000000000000e+03
-3.647501548041879869e+04 2.106708509718349960e+05 -7.000000000000000000e+03
-3.668205810683922027e+04 2.097645883906214149e+05 -9.000000000000000000e+03
-2.570873425576377485e+04 2.110603979968237109e+05 -1.000000000000000000e+03
-2.591497818594886485e+04 2.101539716012901627e+05 -3.000000000000000000e+03
-2.612125472760714547e+04 2.092475502018200932e+05 -5.000000000000000000e+03
-2.632756435217729450e+04 2.083411332433294447e+05 -7.000000000000000000e+03
-2.653390704675583038e+04 2.074347210008798284e+05 -9.000000000000000000e+03
-1.555921344922010576e+04 2.087404473822073196e+05 -1.000000000000000000e+03
-1.576475811744417297e+04 2.078338698642300442e+05 -3.000000000000000000e+03
-1.597033583028327848e+04 2.069272974077368563e+05 -5.000000000000000000e+03
-1.617594681808649329e+04 2.060207291799937957e+05 -7.000000000000000000e+03
-1.638159082602461785e+04 2.051141660094496910e+05 -9.000000000000000000e+03
-5.405507864453875300e+03 2.064298027911086974e+05 -1.000000000000000000e+03
-5.610355231703824757e+03 2.055230726023679308e+05 -3.000000000000000000e+03
-5.815235836289224608e+03 2.046163472623332054e+05 -5.000000000000000000e+03
-6.020149424604243904e+03 2.037096264918742236e+05 -7.000000000000000000e+03
-6.225096225212594618e+03 2.028029108429238549e+05 -9.000000000000000000e+03
4.752394822381856102e+03 2.041284528700732335e+05 -1.000000000000000000e+03
4.548243768368443853e+03 2.032215681769767543e+05 -3.000000000000000000e+03
4.344059284220192239e+03 2.023146886733188585e+05 -5.000000000000000000e+03
4.139841382695572975e+03 2.014078138028000540e+05 -7.000000000000000000e+03
3.935590076026652696e+03 2.005009438405810506e+05 -9.000000000000000000e+03
1.491450848275543285e+04 2.018363855153703771e+05 -1.000000000000000000e+03
1.471105227904761523e+04 2.009293450310434855e+05 -3.000000000000000000e+03
1.450756245224332815e+04 2.000223097993651172e+05 -5.000000000000000000e+03
1.430403877405104140e+04 1.991152789870880952e+05 -7.000000000000000000e+03
1.410048149725961775e+04 1.982082534234208870e+05 -9.000000000000000000e+03
2.211166599945839698e+04 2.002021246938336699e+05 -1.000000000000000000e+03
2.190426163644287590e+04 1.992960711428572831e+05 -3.000000000000000000e+03
2.169682283638304216e+04 1.983900227788665798e+05 -5.000000000000000000e+03
2.148934961234976799e+04 1.974839793227872578e+05 -7.000000000000000000e+03
2.128184197601332926e+04 1.965779413265633048e+05 -9.000000000000000000e+03
2.634213691183581250e+04 1.992218340405931231e+05 -1.000000000000000000e+03
2.612614058155156454e+04 1.983179071596480208e+05 -3.000000000000000000e+03
2.591010862530202576e+04 1.974139858341152431e+05 -5.000000000000000000e+03
2.569404081450970261e+04 1.965100700611713983e+05 -7.000000000000000000e+03
2.547793692057952649e+04 1.956061598379958596e+05 -9.000000000000000000e+03
3.057336628664020463e+04 1.982431457915211795e+05 -1.000000000000000000e+03
3.034877444734746314e+04 1.973413385945135960e+05 -3.000000000000000000e+03
3.012414556074027496e+04 1.964395373368882865e+05 -5.000000000000000000e+03
2.989947939784361370e+04 1.955377422926978325e+05 -7.000000000000000000e+03
2.967477573137624495e+04 1.946359531819476979e+05 -9.000000000000000000e+03
3.480535484824315790e+04 1.972660588050434017e+05 -1.000000000000000000e+03
3.457216419349788339e+04 1.963663645885093720e+05 -3.000000000000000000e+03
3.433893483765455312e+04 1.954666767108604254e+05 -5.000000000000000000e+03
3.410566679474200646e+04 1.945669951695905183e+05 -7.000000000000000000e+03
3.387235983693182789e+04 1.936673199613928155e+05 -9.000000000000000000e+03
3.903810332275905239e+04 1.962905724959196232e+05 -1.000000000000000000e+03
3.879631005811110663e+04 1.953929842829672853e+05 -3.000000000000000000e+03
3.855447693115949369e+04 1.944954028260246560e+05 -5.000000000000000000e+03
3.831260371550393756e+04 1.935978278445199248e+05 -7.000000000000000000e+03
3.807068994117899274e+04 1.927002596111333696e+05 -9.000000000000000000e+03
4.393498380595567869e+04 1.949427066034628078e+05 -1.000000000000000000e+03
4.367397395441190019e+04 1.940516505666127196e+05 -3.000000000000000000e+03
4.341292137563062715e+04 1.931606022368604899e+05 -5.000000000000000000e+03
4.315182584320398018e+04 1.922695616102560307e+05 -7.000000000000000000e+03
4.289068713067768840e+04 1.913785286828529788e+05 -9.000000000000000000e+03
4.949649344682449737e+04 1.932230376144048059e+05 -1.000000000000000000e+03
4.920564441528772295e+04 1.923429285900325340e+05 -3.000000000000000000e+03
4.891474815055783984e+04 1.914628288349237409e+05 -5.000000000000000000e+03
4.862380466919657192e+04 1.905827383453624789e+05 -7.000000000000000000e+03
4.833281398773688124e+04 1.897026571176304133e+05 -9.000000000000000000e+03
5.505975886901192280e+04 1.915061199804935022e+05 -1.000000000000000000e+03
5.473904937611956848e+04 1.906369277888127835e+05 -3.000000000000000000e+03
5.441828852049283159e+04 1.897677465995639504e+05 -5.000000000000000000e+03
5.409747607798183890e+04 1.888985764070978330e+05 -7.000000000000000000e+03
5.377661230811676069e+04 1.880294172082186560e+05 -9.000000000000000000e+03
6.062478176109625201e+04 1.897919510800318385e+05 -1.000000000000000000e+03
6.027419025955883262e+04 1.889336455834872904e+05 -3.000000000000000000e+03
5.992354340062435949e+04 1.880753529922110029e+05 -5.000000000000000000e+03
5.957284120459687256e+04 1.872170730241298734e+05 -7.000000000000000000e+03
5.922208368866021192e+04 1.863588059509297600e+05 -9.000000000000000000e+03
6.619156382431779639e+04 1.880805282962581841e+05 -1.000000000000000000e+03
6.581106898434167670e+04 1.872330794020294561e+05 -3.000000000000000000e+03
6.543051492741881520e+04 1.863856454851001035e+05 -5.000000000000000000e+03
6.504990191830415279e+04 1.855382259868003021e+05 -7.000000000000000000e+03
6.466922972996968747e+04 1.846908217307762534e+05 -9.000000000000000000e+03
6.959278126161701221e+04 1.865041812212717196e+05 -1.000000000000000000e+03
6.914548343893942365e+04 1.857273893414134800e+05 -3.000000000000000000e+03
6.869812291808814916e+04 1.849506175640591246e+05 -5.000000000000000000e+03
6.825069972098591097e+04 1.841738653276103432e+05 -7.000000000000000000e+03
6.780321386117475049e+04 1.833971334555131907e+05 -9.000000000000000000e+03
7.082771220061257191e+04 1.850616040004212991e+05 -1.000000000000000000e+03
7.027669560702802846e+04 1.844152738940767013e+05 -3.000000000000000000e+03
6.972561578751524212e+04 1.837689729212668608e+05 -5.000000000000000000e+03
6.917447251792591123e+04 1.831227005168275209e+05 -7.000000000000000000e+03
6.862326556549848465e+04 1.824764575006875093e+05 -9.000000000000000000e+03
7.206295958213630365e+04 1.836191598242885375e+05 -1.000000000000000000e+03
7.140817157451204548e+04 1.831032701336444588e+05 -3.000000000000000000e+03
7.075332436951238196e+04 1.825874204749208002e+05 -5.000000000000000000e+03
7.009841773701636703e+04 1.820716102817009378e+05 -7.000000000000000000e+03
6.944345143823651597e+04 1.815558403726001852e+05 -9.000000000000000000e+03
7.329852300664887298e+04 1.821768485770918196e+05 -1.000000000000000000e+03
7.253991122217975499e+04 1.817913779728478985e+05 -3.000000000000000000e+03
7.178124857635769877e+04 1.814059601600954193e+05 -5.000000000000000000e+03
7.102253531420328363e+04 1.810205948524216074e+05 -7.000000000000000000e+03
7.026377167720792932e+04 1.806352823173670040e+05 -9.000000000000000000e+03
7.453440207454928895e+04 1.807346701428781380e+05 -1.000000000000000000e+03
7.367191370479468605e+04 1.804795973196766863e+05 -3.000000000000000000e+03
7.280938807835713669e+04 1.802245919102646876e+05 -5.000000000000000000e+03
7.194682543093198910e+04 1.799696539067272097e+05 -7.000000000000000000e+03
7.108422624194170930e+04 1.797147830256517918e+05 -9.000000000000000000e+03
7.520785943608968228e+04 1.774107180425307597e+05 -1.000000000000000000e+03
7.429166934992029564e+04 1.772335203139347723e+05 -3.000000000000000000e+03
7.337545230927149532e+04 1.770563979435786023e+05 -5.000000000000000000e+03
7.245920830176124582e+04 1.768793512007418612e+05 -7.000000000000000000e+03
7.154293756239514914e+04 1.767023795251192059e+05 -9.000000000000000000e+03
7.531874686646259215e+04 1.722049434706492175e+05 -1.000000000000000000e+03
7.439905548457754776e+04 1.720531089134876675e+05 -3.000000000000000000e+03
7.347934127937955782e+04 1.719013500501039089e+05 -5.000000000000000000e+03
7.255960423777758842e+04 1.717496671507748542e+05 -7.000000000000000000e+03
7.163984435017117357e+04 1.715980599316784064e+05 -9.000000000000000000e+03
7.542965380247485882e+04 1.669992048571383348e+05 -1.000000000000000000e+03
7.450645920479657070e+04 1.668727331509296491e+05 -3.000000000000000000e+03
7.358324592722029774e+04 1.667463374753963435e+05 -5.000000000000000000e+03
7.266001395772214164e+04 1.666200178247420408e+05 -7.000000000000000000e+03
7.173676328426689724e+04 1.664937741932569770e+05 -9.000000000000000000e+03
7.554058055463523488e+04 1.617935018866148603e+05 -1.000000000000000000e+03
7.461388082898088032e+04 1.616923927117425774e+05 -3.000000000000000000e+03
7.368716657892506919e+04 1.615913599057066313e+05 -5.000000000000000000e+03
7.276043755109030462e+04 1.614904031851917680e+05 -7.000000000000000000e+03
7.183369397359201685e+04 1.613895228241085424e+05 -9.000000000000000000e+03
7.565152670649207721e+04 1.565878342387662269e+05 -1.000000000000000000e+03
7.472131994857467362e+04 1.565120872764879605e+05 -3.000000000000000000e+03
7.379110283365237410e+04 1.564364170224930567e+05 -5.000000000000000000e+03
7.286087486528504814e+04 1.563608231929760368e+05 -7.000000000000000000e+03
7.193063651364049292e+04 1.562853060644813231e+05 -9.000000000000000000e+03
[...]
POINT_DATA 1010
SCALARS fault_number int
LOOKUP_TABLE default
6
6
6
6
6
6
6
6
6
6
6
6
6
6
6
6
6
6
6
6
6
6
6
6
6
6
6
6
6
6
6
6
6
6
6
6
6
6
6
6
6
6
6
6
6
6
6
6
6
6
6
6
6
6
6
6
6
6
6
6
6
6
6
6
6
6
6
6
6
6
6
6
6
6
6
6
6
6
6
6
6
6
6
6
6
6
6
6
6
6
6
6
6
6
6
6
6
6
6
6
6
6
6
6
6
6
6
6
6
6
6
6
6
6
6
6
6
6
6
6
6
6
6
6
6
6
6
6
6
6
6
6
6
6
6
6
6
6
6
6
6
6
6
6
6
6
6
6
6
6
6
6
6
6
6
6
6
6
6
6
6
6
6
6
6
6
6
6
6
6
6
6
6
6
6
6
6
6
6
6
6
6
6
6
6
6
6
6
6
6
6
6
6
6
6
6
6
6
6
6
6
6
6
6
6
6
6
6
6
6
6
6
6
6
6
6
6
6
6
6
6
6
6
6
6
6
6
6
6
6
6
6
6
6
6
6
6
6
6
6
6
6
6
6
6
6
6
6
6
6
6
6
6
6
6
6
6
6
6
6
6
6
6
6
6
6
6
6
6
6
6
6
6
6
6
6
6
6
6
6
6
6
6
6
6
6
6
6
6
6
6
6
6
6
6
6
6
6
6
6
6
6
6
6
6
6
6
6
6
6
6
6
6
6
6
6
6
6
6
6
6
6
6
6
6
6
6
6
6
6
6
6
6
6
6
6
6
6
6
6
6
6
6
6
6
6
6
6
6
6
6
6
6
6
6
6
6
6
6
6
6
6
6
6
6
6
6
6
6
6
6
6
6
6
6
6
6
6
6
6
6
6
6
6
6
6
6
6
6
6
6
6
6
6
6
6
6
6
6
6
6
6
6
6
6
6
6
6
6
6
6
6
6
6
6
6
6
6
6
6
6
6
6
6
6
6
6
6
6
6
6
6
6
6
6
6
6
6
6
6
6
6
6
6
6
6
6
6
6
6
6
6
6
6
6
6
6
6
6
6
6
6
6
6
6
6
6
6
6
6
6
6
6
6
6
6
6
6
6
6
6
6
6
6
6
6
6
6
6
6
6
6
6
6
6
6
6
6
6
6
6
6
6
6
6
6
6
6
6
6
6
6
6
6
6
6
6
6
6
6
6
6
6
6
6
6
6
6
6
6
6
6
6
6
6
6
6
6
6
6
6
6
6
6
6
6
6
6
6
6
6
6
6
6
6
6
6
6
6
6
6
6
6
6
6
6
6
6
6
6
6
6
6
6
6
6
6
6
6
6
6
6
6
6
6
6
6
6
6
6
6
6
6
6
6
6
6
6
6
6
6
6
6
6
6
6
6
6
6
6
6
6
6
6
6
6
6
6
6
6
6
6
6
6
6
6
6
6
6
6
6
6
6
6
6
6
6
6
6
6
6
6
6
6
6
6
6
6
6
6
6
6
6
6
6
6
6
6
6
6
6
6
6
6
6
6
6
6
6
6
6
6
6
6
6
6
6
6
6
6
6
6
6
6
6
6
6
6
6
6
6
6
6
6
6
6
6
6
6
6
6
6
6
6
6
6
6
6
6
6
6
6
6
6
6
6
6
6
6
6
6
6
6
6
6
6
6
6
6
6
6
6
6
6
6
6
6
6
6
6
6
6
6
6
6
6
6
6
6
6
6
6
6
6
6
6
6
6
6
6
6
6
6
6
6
6
6
6
6
6
6
6
6
6
6
6
6
6
6
6
6
6
6
6
6
6
6
6
6
6
6
6
6
6
6
6
6
6
6
6
6
6
6
6
6
6
6
6
6
6
6
6
6
6
6
6
6
6
6
6
6
6
6
6
6
6
6
6
6
6
6
6
6
6
6
6
6
6
6
6
6
6
6
6
6
6
6
6
6
6
6
6
6
6
6
6
6
6
6
6
6
6
6
6
6
6
6
6
6
6
6
6
6
6
6
6
6
6
6
6
6
6
6
6
6
6
6
6
6
6
6
6
6
6
6
6
6
6
6
6
6
6
6
6
6
6
6
6
6
6
6
6
6
6
6
6
6
6
6
6
6
6
6
6
6
6
6
6
6
6
6
6
6
6
6
6
6
6
6
6
6
6
6
6
6
6
6
6
6
6
6
6
6
6
6
6
6
6
6
6
6
6
6
6
6
6
6
6
6
6
6
6
6
6
6
6
6
6
6
6
6
6
6
6
6
6
6
6
6
6
6
6
6
6
6
6
6
6
6
6
6
6
6
6
6
6
6
6
6
6
SCALARS effective_shear_modulus float
LOOKUP_TABLE default
3.161516421683745575e+10
3.623720224391432190e+10
3.731447958683397675e+10
3.691071906198554230e+10
3.653836872036073303e+10
2.864571067992596436e+10
3.387077900729727936e+10
3.567351550460395050e+10
3.587582697151696014e+10
3.618470374845991516e+10
2.687935138607270813e+10
3.279716952268740845e+10
3.527392812145114136e+10
3.573036379081022644e+10
3.616490668179666901e+10
2.538844275077438736e+10
3.185566560897384644e+10
3.488147293207805634e+10
3.549191330664611053e+10
3.590600027773026276e+10
2.347781201281858826e+10
2.991829528930712891e+10
3.333616119607445526e+10
3.438372060312329865e+10
3.511239481591738129e+10
2.144554847952207184e+10
2.752254111607609558e+10
3.127689375754068756e+10
3.304039428021757126e+10
3.442133252686164856e+10
2.032799221559043121e+10
2.632974195449085236e+10
3.040044337774102402e+10
3.262943377549645233e+10
3.439175034953578949e+10
2.005447627942480087e+10
2.600780560777839661e+10
3.018934915032880020e+10
3.259440960613386154e+10
3.451991907197972870e+10
2.005216328884597397e+10
2.594234608175024414e+10
3.013743447292130280e+10
3.259359472670941925e+10
3.460605340755632019e+10
2.005207716244820023e+10
2.587583786400565720e+10
3.007651129190989685e+10
3.257784047324943542e+10
3.462398042719167328e+10
2.005421131410330200e+10
2.580828807074737930e+10
3.000660533731475067e+10
3.248639484372995758e+10
3.450671847108057404e+10
2.009087042099303436e+10
2.577716520172798920e+10
2.990805590855277634e+10
3.234025156050360489e+10
3.440048603787155151e+10
2.011697813408380508e+10
2.582176468056395340e+10
2.997475257250374985e+10
3.235413972837573242e+10
3.432050544523159790e+10
1.984121858495792389e+10
2.572648022920896149e+10
3.012389359985208130e+10
3.243728250951065826e+10
3.413312336384578705e+10
1.951517995476338577e+10
2.553554958811743927e+10
3.014943376409006500e+10
3.242002200584139633e+10
3.389621182029513550e+10
1.914042751946982574e+10
2.525034988974512100e+10
3.005138530258700943e+10
3.230260086467041016e+10
3.361101088012416840e+10
1.895571173489887619e+10
2.510466136371958923e+10
2.998170245424752426e+10
3.220764688741756821e+10
3.342390841630208206e+10
1.898908507067988968e+10
2.515673019557690811e+10
3.002065989201140213e+10
3.220206513440115738e+10
3.336769991184490204e+10
1.901299712729927826e+10
2.519417091069375229e+10
3.004384969433528519e+10
3.218612768406787872e+10
3.330753362395780182e+10
1.897988813470689011e+10
2.521611083343611145e+10
3.005124494565055847e+10
3.215984000552959824e+10
3.324342120560348129e+10
1.889828642770923996e+10
2.508799249525866699e+10
3.000766606982287216e+10
3.212321315351838303e+10
3.317537509374930573e+10
1.912440149773010254e+10
2.531512714050770187e+10
3.010064908059513474e+10
3.217168433903261185e+10
3.310040813674518204e+10
1.967353702114189911e+10
2.592107541098988724e+10
3.048298923390141678e+10
3.231053976988067627e+10
3.302005874851328659e+10
2.022864873299430084e+10
2.653208787119447708e+10
3.086504395074550247e+10
3.244378583902629471e+10
3.293769945348823547e+10
2.038773908700458908e+10
2.649073836602562714e+10
3.064998331407128906e+10
3.243357278390692139e+10
3.332806081955559158e+10
2.050376403646633530e+10
2.639550269045549393e+10
3.040400926152784729e+10
3.242075492964413834e+10
3.373262788247294998e+10
2.057995022628309631e+10
2.626599571394070816e+10
3.013574349176312256e+10
3.238444693459574127e+10
3.412207346013134003e+10
2.063753872973878479e+10
2.613547952555920410e+10
2.988284836482229614e+10
3.235247504963331985e+10
3.451263698134465790e+10
2.072960960607818604e+10
2.605701313461794281e+10
2.968887685894177628e+10
3.236085040103002930e+10
3.491667750822728729e+10
2.090035261179703903e+10
2.610401454579204178e+10
2.961138000091050720e+10
3.231530914813481903e+10
3.496432072541753387e+10
2.125683174574134064e+10
2.640483873184314728e+10
2.970868542735363388e+10
3.207380401902162933e+10
3.430851295942427444e+10
2.154049425735776901e+10
2.664700848461615753e+10
2.978353301276503372e+10
3.184799739154972458e+10
3.370833213187810135e+10
2.175041337700899124e+10
2.683139986694432831e+10
2.983758093317212296e+10
3.163800462595244598e+10
3.315825175202184677e+10
2.196367149618300247e+10
2.702050229715267563e+10
2.989506593831411743e+10
3.142940759172975159e+10
3.260547719145892334e+10
2.218033344655170059e+10
2.721440325346680069e+10
2.995603154383442307e+10
3.122222637661339188e+10
3.205026959026184845e+10
2.240046357703377533e+10
2.741319080117736053e+10
3.002052142428023148e+10
3.101647911140941620e+10
3.149288669400460434e+10
2.254316064653189087e+10
2.754532513075285721e+10
3.010511585011159515e+10
3.096094522177082825e+10
3.125020600218070984e+10
2.239854654235862350e+10
2.750137419096648788e+10
3.017770007533234024e+10
3.101076028347243881e+10
3.118122666305237961e+10
2.218686842780747986e+10
2.738308696157118225e+10
3.018916885322375107e+10
3.102735548074654770e+10
3.110999432250568771e+10
2.190920778997837448e+10
2.719098490413708115e+10
3.013944214118816376e+10
3.101067959718318939e+10
3.103653960419001389e+10
2.156700834345620728e+10
2.692594572207004929e+10
3.002865553163988113e+10
3.096074632066453552e+10
3.096089161760364914e+10
2.132955282830724335e+10
2.674426545200226212e+10
2.995726625431248856e+10
3.093323558707174683e+10
3.091466577598679352e+10
2.124276703987225723e+10
2.669846054337403107e+10
2.996989385362582397e+10
3.095263974587421799e+10
3.089949674288716507e+10
2.115428064658017349e+10
2.665089942269139481e+10
2.998127451819033051e+10
3.097150175232752609e+10
3.088430033091244507e+10
2.106410695819933701e+10
2.660158748217094040e+10
2.999140730893630981e+10
3.098982098633597946e+10
3.086907662984710312e+10
2.114230275081914902e+10
2.666740336032922745e+10
3.004305720793959045e+10
3.103621184538352585e+10
3.089835080718975830e+10
2.165746546173748779e+10
2.707099734497229385e+10
3.025942958645237350e+10
3.119359403240126419e+10
3.105393865448744202e+10
2.234886553317073441e+10
2.760987492509164810e+10
3.054502647472358322e+10
3.139580207872601700e+10
3.125483626097341156e+10
2.301063320836127853e+10
2.810421923694994736e+10
3.078882403305667114e+10
3.156931653990175629e+10
3.144404210149236298e+10
2.364093041833658981e+10
2.855272923292467499e+10
3.099041815217266083e+10
3.171394458464506149e+10
3.162143708945804977e+10
2.423802161508490753e+10
2.895423423389011383e+10
3.114948895885963058e+10
3.182953277218205261e+10
3.178691031819203949e+10
2.483141454494935989e+10
2.932079783119211960e+10
3.126597440498845291e+10
3.188596838635483932e+10
3.189446230222589493e+10
2.548645343852243042e+10
2.971469671260142517e+10
3.137693701757083130e+10
3.181362298829404449e+10
3.174533681186862946e+10
2.612249765126842499e+10
3.010376988424500275e+10
3.149509720242635727e+10
3.174985429369505310e+10
3.159446426938476944e+10
2.673831008823224258e+10
3.048782564249466324e+10
3.162052186607549667e+10
3.169466448863788986e+10
3.144185633829419327e+10
2.733269555720370102e+10
3.086667479810116196e+10
3.175328022485559845e+10
3.164805936239063263e+10
3.128752491918519211e+10
2.775966229874716568e+10
3.114252074353439713e+10
3.185347641256572723e+10
3.161665197011975098e+10
3.117146467602202225e+10
2.803812793596213913e+10
3.132009387736864853e+10
3.191532727849285507e+10
3.159357139185570526e+10
3.109487364164960861e+10
2.831954547094117737e+10
3.149868662018090439e+10
3.197692136875597382e+10
3.156995993993767548e+10
3.101819656457542419e+10
2.834322894811839294e+10
3.155918677728774643e+10
3.207251589442524719e+10
3.166789993090395737e+10
3.110795411976879120e+10
2.832478826677902985e+10
3.160508416000260925e+10
3.217315987309606934e+10
3.177726738814857101e+10
3.120903859475641251e+10
2.830284503755263901e+10
3.165531534108736420e+10
3.229190607246253967e+10
3.191999546581884384e+10
3.135952105225691605e+10
2.826953200493024063e+10
3.171630998487263107e+10
3.244826932223327255e+10
3.212553132490907669e+10
3.159411550992448807e+10
2.822516119020659637e+10
3.178637435161357117e+10
3.263259112546803665e+10
3.237353910167004013e+10
3.187898265386663818e+10
2.816976356730799866e+10
3.186555085555577850e+10
3.284516592949918365e+10
3.266459570147274017e+10
3.221487480409561539e+10
2.810337546972602081e+10
3.195388689702694321e+10
3.308633429965671539e+10
3.299937916408459854e+10
3.260267942422236633e+10
2.803579899256295395e+10
3.205121300674971771e+10
3.333315227137178802e+10
3.331876651641699219e+10
3.294839858592519379e+10
2.797651545837212753e+10
3.214960802051477051e+10
3.356118371512547684e+10
3.358517201481252670e+10
3.320698723139389420e+10
2.792736409402214813e+10
3.215056673227837753e+10
3.361938878665980911e+10
3.369950377351322937e+10
3.338150598712699509e+10
2.789041031176639938e+10
3.205758628550822449e+10
3.352990324924155807e+10
3.369621677626141357e+10
3.349882660675377274e+10
2.785665226070449066e+10
3.196855560919266510e+10
3.344376632167995834e+10
3.369433540932484436e+10
3.361510517277500916e+10
2.781057714361363602e+10
3.188390107176673508e+10
3.338177795381800842e+10
3.373400244566039276e+10
3.378554797348046494e+10
2.774464759082771683e+10
3.179455003971560287e+10
3.333611834345555496e+10
3.381163998142289352e+10
3.401326428026764679e+10
2.767189988064292526e+10
3.169709361804459381e+10
3.328338082125589752e+10
3.388588414149759674e+10
3.424407264993349838e+10
2.759237117726723480e+10
3.159158449086111450e+10
3.322359171640888214e+10
3.395672182775170517e+10
3.447799392658044434e+10
2.750610190692798996e+10
3.147807937042784119e+10
3.315678025223148346e+10
3.402414062779803085e+10
3.471504926916874695e+10
2.756486274042804718e+10
3.146697193259200287e+10
3.308749609759645844e+10
3.393108562086422348e+10
3.462077420121623993e+10
2.782429454354893112e+10
3.165111629659273148e+10
3.307352547326459885e+10
3.368802954907689667e+10
3.419094907571080399e+10
2.807203685720714569e+10
3.189226924196809387e+10
3.316267747343511200e+10
3.349367326130624008e+10
3.370095066620742798e+10
2.829478642430719376e+10
3.213512258168792725e+10
3.327966789063615799e+10
3.335555975908919907e+10
3.326417744721931076e+10
2.849212928099957275e+10
3.237968528710419464e+10
3.342470198881011963e+10
3.327333070132489395e+10
3.290815005214112473e+10
2.867850164843479538e+10
3.266242114200049591e+10
3.363796961714647675e+10
3.326347960684146118e+10
3.260381226965227890e+10
2.884176625950191116e+10
3.298423027430376434e+10
3.393872169101688385e+10
3.336952208603914261e+10
3.242118901993772125e+10
2.896274336228718185e+10
3.330897902464148331e+10
3.429418838440135956e+10
3.359006135240349960e+10
3.241041110720800400e+10
2.904107044996814346e+10
3.363668380463166809e+10
3.470545359091237640e+10
3.392430124895104980e+10
3.262464361609657669e+10
2.898222104770523071e+10
3.374098908662757874e+10
3.487124104270987701e+10
3.419730662504158783e+10
3.309125694284215164e+10
2.871818277522466278e+10
3.372205017578944778e+10
3.505367249860299683e+10
3.456734368593431854e+10
3.364005259000571060e+10
2.849345554519710159e+10
3.378644238397258759e+10
3.534577425881966400e+10
3.504197285532173920e+10
3.427672058985633850e+10
2.831281377453562164e+10
3.391015911344111633e+10
3.570194817583004761e+10
3.556802365820079041e+10
3.495146758397211456e+10
2.818073392238969421e+10
3.389806166209483719e+10
3.594793132628464508e+10
3.613480364128074646e+10
3.566555932063513184e+10
2.808738580026887131e+10
3.365931888240261459e+10
3.557354001956031799e+10
3.580355216163798523e+10
3.565146725321571350e+10
2.803303484240655899e+10
3.348093307209720230e+10
3.526310987540058136e+10
3.548871192966577148e+10
3.541586711969420624e+10
2.801175206387528610e+10
3.335186981465960693e+10
3.500439219993671417e+10
3.519151323761074829e+10
3.513522865127857208e+10
2.801551533953675461e+10
3.327284912085181046e+10
3.480618448973049927e+10
3.493043327797771454e+10
3.484564355954084015e+10
2.804433183305472946e+10
3.324365531971651459e+10
3.466784737195719910e+10
3.470499903415088654e+10
3.454725134860112762e+10
2.809825350837158966e+10
3.326420320141872025e+10
3.458890221213169861e+10
3.441595253749739075e+10
3.405326692162519836e+10
2.824273808072171402e+10
3.318253015716615295e+10
3.412055921827327347e+10
3.375856476227526474e+10
3.320929842873196030e+10
2.704232551951990891e+10
3.192838780176625824e+10
3.295872226231902313e+10
3.273666793070162964e+10
3.222053887458042526e+10
2.573187376003496552e+10
3.063858179445051956e+10
3.180164483212856674e+10
3.174117212827838898e+10
3.131697576224947739e+10
2.485830112235767746e+10
2.992919663645747757e+10
3.127509775665243912e+10
3.132449202576893234e+10
3.095206265906089020e+10
2.498309843230624771e+10
3.042366362785792542e+10
3.203837365847579193e+10
3.219570085020669937e+10
3.184613084884899902e+10
3.636114233099434662e+10
3.644813066952745819e+10
3.693518647220474243e+10
3.759132203705646515e+10
3.803235683170142365e+10
3.660034068882122803e+10
3.687972084427886200e+10
3.732992197577867889e+10
3.808414914643278503e+10
3.872115680616740417e+10
3.672456494155865479e+10
3.701204971992182159e+10
3.740537323300460052e+10
3.820709053761031342e+10
3.898490863986708832e+10
3.648642900383578491e+10
3.679600012028874969e+10
3.722732609709182739e+10
3.808633920680580902e+10
3.894909994778842163e+10
3.581478812742505646e+10
3.617457820401361084e+10
3.666554126105442047e+10
3.754941726799060059e+10
3.844179767820871735e+10
3.522567980575936890e+10
3.537873698222782135e+10
3.563446764428350067e+10
3.629596442945300293e+10
3.700095580499066925e+10
3.516125939925373840e+10
3.504083003438594055e+10
3.503606852455500793e+10
3.551636323056041718e+10
3.609567280258057404e+10
3.525994064990522766e+10
3.495303642445748138e+10
3.477507457112513733e+10
3.513425672902899933e+10
3.562264312462883759e+10
3.535739035163465118e+10
3.494769915512046051e+10
3.476876685303598022e+10
3.510544529726762390e+10
3.559176833407352448e+10
3.533491937914559174e+10
3.493144222448217773e+10
3.476259020343560791e+10
3.508377579818737030e+10
3.556511095070409393e+10
3.529559698368814087e+10
3.490427256698218536e+10
3.475654467434343719e+10
3.506923943690335083e+10
3.554267121548126984e+10
3.523033321389637756e+10
3.486287572133347321e+10
3.475675406541076660e+10
3.507066091700849152e+10
3.553153769028950500e+10
3.512366936912687683e+10
3.479730114276541901e+10
3.476334518269493866e+10
3.509449446218150330e+10
3.553549725178173065e+10
3.481445612837333679e+10
3.457516465873715210e+10
3.463757301890140533e+10
3.505211635352487946e+10
3.553823043339833069e+10
3.448037113567414093e+10
3.432159870486965179e+10
3.446065083541582489e+10
3.494655028711515808e+10
3.548473582509827423e+10
3.413268457651654053e+10
3.405389367611092758e+10
3.425652970494927979e+10
3.479394373267218018e+10
3.536947334346298218e+10
3.392304546913929367e+10
3.389725104823519897e+10
3.413491711966941071e+10
3.469368293882751465e+10
3.528387465760890198e+10
3.386077021611509323e+10
3.386161639002281952e+10
3.411543218700793839e+10
3.468026681360544586e+10
3.527375408306307983e+10
3.379761250960589600e+10
3.382536522991535950e+10
3.409522669240934372e+10
3.466618461484438324e+10
3.526328345242972565e+10
3.373357522462604141e+10
3.378849882204009628e+10
3.407430146669571686e+10
3.465143688161778259e+10
3.525246299523325348e+10
3.366866129684064484e+10
3.375101845657155991e+10
3.405265739338149261e+10
3.463602416887516785e+10
3.524129289931382751e+10
3.356232585358287430e+10
3.370138046223517227e+10
3.404385758665193558e+10
3.462321755602524567e+10
3.519347733054011536e+10
3.341483824397077942e+10
3.363961564504910278e+10
3.404773392812198639e+10
3.461236421213751221e+10
3.510789647633753967e+10
3.326976779301479340e+10
3.358692158553062057e+10
3.405923902497992706e+10
3.460844632233685303e+10
3.503530739726406097e+10
3.378878227836835098e+10
3.395018661014354324e+10
3.427242500728598022e+10
3.474033211561325836e+10
3.513961310856192780e+10
3.431648381770453262e+10
3.431941350796422577e+10
3.448995515338518524e+10
3.487629638529602814e+10
3.524821511605204010e+10
3.484228943316265106e+10
3.469182309934789276e+10
3.471248319495356750e+10
3.501940307789527893e+10
3.536816174937484741e+10
3.538797845159187317e+10
3.508848991114212036e+10
3.496119774711675262e+10
3.519307962835951233e+10
3.552602248338262177e+10
3.597233792588559723e+10
3.551987278758937073e+10
3.524291740807892609e+10
3.540237290497789001e+10
3.572391279738669586e+10
3.603805815532888031e+10
3.550727093853771210e+10
3.516916098076570129e+10
3.533848742244932556e+10
3.570193102102896118e+10
3.519435386330660248e+10
3.481333542851357269e+10
3.461069276646014404e+10
3.493568319208178711e+10
3.542883675020948029e+10
3.442288552572627258e+10
3.412788157155637741e+10
3.413372118996150970e+10
3.460538426878736115e+10
3.522684081179477692e+10
3.371569789016181564e+10
3.348292636963823318e+10
3.359268045904714966e+10
3.426494740676825714e+10
3.508541725751021576e+10
3.300614337897680283e+10
3.284417342233021927e+10
3.305534259423250961e+10
3.383124119123423004e+10
3.476027231309586334e+10
3.229464030016330719e+10
3.221163223490070724e+10
3.252499300886268234e+10
3.339647191868825150e+10
3.441563220911371613e+10
3.158160491127796555e+10
3.158531115526224136e+10
3.200155553875675583e+10
3.298475803203291702e+10
3.411812967829460907e+10
3.132063564787904739e+10
3.146576913230897522e+10
3.200648709563867569e+10
3.300735379150061798e+10
3.410293528214165497e+10
3.122423002972904968e+10
3.144448120281965637e+10
3.204329171747975159e+10
3.304077710149940491e+10
3.410733129242858887e+10
3.114298791724614334e+10
3.144121458876066971e+10
3.209919538510477829e+10
3.310047622913895035e+10
3.414034069372836304e+10
3.107685935826750183e+10
3.145596443608857727e+10
3.217427540631523514e+10
3.318656132925514221e+10
3.420202897499884796e+10
3.102580526883124924e+10
3.148874645273189545e+10
3.226862810929459000e+10
3.329917936217793655e+10
3.429250207317099380e+10
3.100332902412252426e+10
3.153424490693669891e+10
3.236400698025731277e+10
3.341130037769017792e+10