# vtk DataFile Version 2.0
Sampled points
ASCII
DATASET UNSTRUCTURED_GRID
POINTS 150 double
-1.956501151237477461e+04 1.329398377817175933e+05 -1.000000000000000000e+03
-1.949947022433639358e+04 1.329641075501806336e+05 -3.000000000000000000e+03
-1.943392921718718935e+04 1.329883776941723481e+05 -5.000000000000000000e+03
-1.936838873351091024e+04 1.330126484910789295e+05 -7.000000000000000000e+03
-1.930284853121147535e+04 1.330369193865355046e+05 -9.000000000000000000e+03
-2.142215803808749479e+04 1.378221876501321385e+05 -1.000000000000000000e+03
-2.135631192431163072e+04 1.378455739113534801e+05 -3.000000000000000000e+03
-2.129046608329461014e+04 1.378689605521478807e+05 -5.000000000000000000e+03
-2.122462051507965953e+04 1.378923475725196186e+05 -7.000000000000000000e+03
-2.115877522010902976e+04 1.379157346954870445e+05 -9.000000000000000000e+03
-2.327769582504982827e+04 1.427048816262483597e+05 -1.000000000000000000e+03
-2.321154548267207065e+04 1.427273842395925312e+05 -3.000000000000000000e+03
-2.314539540480182768e+04 1.427498872365890711e+05 -5.000000000000000000e+03
-2.307924559197704366e+04 1.427723903402534779e+05 -7.000000000000000000e+03
-2.301309580088351504e+04 1.427948938270704821e+05 -9.000000000000000000e+03
-2.513162167250303173e+04 1.475879208575083758e+05 -1.000000000000000000e+03
-2.506516770093452942e+04 1.476095394049463794e+05 -3.000000000000000000e+03
-2.499871374283614205e+04 1.476311583395978378e+05 -5.000000000000000000e+03
-2.493226004086813919e+04 1.476527776620228542e+05 -7.000000000000000000e+03
-2.486580659492828636e+04 1.476743973722691007e+05 -9.000000000000000000e+03
-2.698393238192991703e+04 1.524713056560676196e+05 -1.000000000000000000e+03
-2.691717513925793901e+04 1.524920399955653993e+05 -3.000000000000000000e+03
-2.685041790088231937e+04 1.525127750034240307e+05 -5.000000000000000000e+03
-2.678366115270530645e+04 1.525335104038016289e+05 -7.000000000000000000e+03
-2.671690489550938219e+04 1.525542459196626442e+05 -9.000000000000000000e+03
-2.864889095386461850e+04 1.579173499625871773e+05 -1.000000000000000000e+03
-2.858183165864934927e+04 1.579370666879689088e+05 -3.000000000000000000e+03
-2.851477260022025075e+04 1.579567840865456965e+05 -5.000000000000000000e+03
-2.844771402110147756e+04 1.579765021589169919e+05 -7.000000000000000000e+03
-2.838065568012248332e+04 1.579962203504975769e+05 -9.000000000000000000e+03
-3.012649988059316092e+04 1.639260084128630406e+05 -1.000000000000000000e+03
-3.005914005221203115e+04 1.639445741243397060e+05 -3.000000000000000000e+03
-2.999178044941427288e+04 1.639631402364245150e+05 -5.000000000000000000e+03
-2.992442082917646621e+04 1.639817070254574646e+05 -7.000000000000000000e+03
-2.985706143451747266e+04 1.640002742151092098e+05 -9.000000000000000000e+03
-3.160249483797932044e+04 1.699349222017009160e+05 -1.000000000000000000e+03
-3.153483495347788630e+04 1.699523367683496326e+05 -3.000000000000000000e+03
-3.146717528250249597e+04 1.699697517400545185e+05 -5.000000000000000000e+03
-3.139951558274405761e+04 1.699871671161590202e+05 -7.000000000000000000e+03
-3.133185609650494735e+04 1.700045828973296448e+05 -9.000000000000000000e+03
-3.307687163584228256e+04 1.759440920168390730e+05 -1.000000000000000000e+03
-3.300891241696054203e+04 1.759603553080467100e+05 -3.000000000000000000e+03
-3.294095315732354356e+04 1.759766190080721572e+05 -5.000000000000000000e+03
-3.287299409897493024e+04 1.759928831176465028e+05 -7.000000000000000000e+03
-3.280503548395708640e+04 1.760091476374993217e+05 -9.000000000000000000e+03
-3.454962632848936482e+04 1.819535185421890346e+05 -1.000000000000000000e+03
-3.448136849961402186e+04 1.819686304269279935e+05 -3.000000000000000000e+03
-3.441311061757131392e+04 1.819837427250116016e+05 -5.000000000000000000e+03
-3.434485292440562625e+04 1.819988554371735081e+05 -7.000000000000000000e+03
-3.427659566215782979e+04 1.820139685641397373e+05 -9.000000000000000000e+03
-3.583704578466424573e+04 1.879638944032181171e+05 -1.000000000000000000e+03
-3.576859767083303450e+04 1.879782265946748666e+05 -3.000000000000000000e+03
-3.570014997931659309e+04 1.879925592042122444e+05 -5.000000000000000000e+03
-3.563170246832698467e+04 1.880068922310507041e+05 -7.000000000000000000e+03
-3.556325489606847259e+04 1.880212256744070910e+05 -9.000000000000000000e+03
-3.693932331755930500e+04 1.939751762630474695e+05 -1.000000000000000000e+03
-3.687079325682466151e+04 1.939891005177288025e+05 -3.000000000000000000e+03
-3.680226361418767192e+04 1.940030251923955220e+05 -5.000000000000000000e+03
-3.673373438951771823e+04 1.940169502870756260e+05 -7.000000000000000000e+03
-3.666520509936191229e+04 1.940308758001779788e+05 -9.000000000000000000e+03
-3.804036142734551686e+04 1.999866281414710393e+05 -1.000000000000000000e+03
-3.797174992897181073e+04 2.000001444142119144e+05 -3.000000000000000000e+03
-3.790313860265867697e+04 2.000136611080651637e+05 -5.000000000000000000e+03
-3.783452744853576587e+04 2.000271782230088138e+05 -7.000000000000000000e+03
-3.776591670799240819e+04 2.000406957599025336e+05 -9.000000000000000000e+03
-3.914015713398016669e+04 2.059982504310567747e+05 -1.000000000000000000e+03
-3.907146446627269324e+04 2.060113586758461315e+05 -3.000000000000000000e+03
-3.900277196634425491e+04 2.060244673436658049e+05 -5.000000000000000000e+03
-3.893407939266673930e+04 2.060375764336831926e+05 -7.000000000000000000e+03
-3.886538698689011653e+04 2.060506859467123286e+05 -9.000000000000000000e+03
-4.023870745879194874e+04 2.120100437986459583e+05 -1.000000000000000000e+03
-4.016993364922709588e+04 2.120227439686027064e+05 -3.000000000000000000e+03
-4.010116000313097902e+04 2.120354445635156299e+05 -5.000000000000000000e+03
-4.003238652049529628e+04 2.120481455833842047e+05 -7.000000000000000000e+03
-3.996361295992245869e+04 2.120608470273576677e+05 -9.000000000000000000e+03
-1.923730812363461155e+04 1.330611906567554688e+05 -1.100000000000000000e+04
-1.917176775396042285e+04 1.330854623021004663e+05 -1.300000000000000000e+04
-1.910622742267858484e+04 1.331097340455917001e+05 -1.500000000000000000e+04
-1.904068712870996023e+04 1.331340064412546053e+05 -1.700000000000000000e+04
-1.897514760166927954e+04 1.331582792133016046e+05 -1.900000000000000000e+04
-2.109292995501619589e+04 1.379391221975743247e+05 -1.100000000000000000e+04
-2.102708447682038604e+04 1.379625100783628004e+05 -1.300000000000000000e+04
-2.096123902888381053e+04 1.379858980613429740e+05 -1.500000000000000000e+04
-2.089539385373592449e+04 1.380092864239366027e+05 -1.700000000000000000e+04
-2.082954919430214795e+04 1.380326751665747142e+05 -1.900000000000000000e+04
-2.294694578922856454e+04 1.428173974195855844e+05 -1.100000000000000000e+04
-2.288079579977763933e+04 1.428399011183201219e+05 -1.300000000000000000e+04
-2.281464607481755229e+04 1.428624052007438149e+05 -1.500000000000000000e+04
-2.274849661487535195e+04 1.428849093898709689e+05 -1.700000000000000000e+04
-2.268234741941689208e+04 1.429074139626977267e+05 -1.900000000000000000e+04
-2.479935292088908318e+04 1.476960169152515882e+05 -1.100000000000000000e+04
-2.473289926151596956e+04 1.477176362914916244e+05 -1.300000000000000000e+04
-2.466644561558913119e+04 1.477392560549872578e+05 -1.500000000000000000e+04
-2.459999222577393812e+04 1.477608762062915193e+05 -1.700000000000000000e+04
-2.453353933472788776e+04 1.477824967459565669e+05 -1.900000000000000000e+04
-2.665014815945782175e+04 1.525749812717315508e+05 -1.100000000000000000e+04
-2.658339118710756156e+04 1.525957164606110309e+05 -1.300000000000000000e+04
-2.651663446226720043e+04 1.526164520414860453e+05 -1.500000000000000000e+04
-2.644987774248202186e+04 1.526371880137316766e+05 -1.700000000000000000e+04
-2.638312151296892262e+04 1.526579243784869614e+05 -1.900000000000000000e+04
-2.831359685185788112e+04 1.580159378284884733e+05 -1.100000000000000000e+04
-2.824653777743217870e+04 1.580356551474929147e+05 -1.300000000000000000e+04
-2.817947918300014862e+04 1.580553728633167339e+05 -1.500000000000000000e+04
-2.811242058344349425e+04 1.580750909747899859e+05 -1.700000000000000000e+04
-2.804536197888412789e+04 1.580948094818849058e+05 -1.900000000000000000e+04
-2.978970202588780012e+04 1.640188406967586197e+05 -1.100000000000000000e+04
-2.972234236029391468e+04 1.640374067467585264e+05 -1.300000000000000000e+04
-2.965498267869152914e+04 1.640559729197395500e+05 -1.500000000000000000e+04
-2.958762322263498208e+04 1.640745394933678326e+05 -1.700000000000000000e+04
-2.952026374968564778e+04 1.640931064670275664e+05 -1.900000000000000000e+04
-3.126419658393028658e+04 1.700219982518718462e+05 -1.100000000000000000e+04
-3.119653680345097018e+04 1.700394129021369154e+05 -1.300000000000000000e+04
-3.112887699568748212e+04 1.700568274028285523e+05 -1.500000000000000000e+04
-3.106121740140368638e+04 1.700742423086137278e+05 -1.700000000000000000e+04
-3.099355801981083277e+04 1.700916578965005465e+05 -1.900000000000000000e+04
-3.273707659004868037e+04 1.760254111804694112e+05 -1.100000000000000000e+04
-3.266911717436234176e+04 1.760416740228530834e+05 -1.300000000000000000e+04
-3.260115796070352008e+04 1.760579369978081668e+05 -1.500000000000000000e+04
-3.253319919115093580e+04 1.760742001060558832e+05 -1.700000000000000000e+04
-3.246524037918368413e+04 1.760904641771809547e+05 -1.900000000000000000e+04
-3.420833810988119512e+04 1.820290804416668834e+05 -1.100000000000000000e+04
-3.414008002468481573e+04 1.820441913460482610e+05 -1.300000000000000000e+04
-3.407182212831211655e+04 1.820593026645338396e+05 -1.500000000000000000e+04
-3.400356466362639185e+04 1.820744141208372312e+05 -1.700000000000000000e+04
-3.393530714489155798e+04 1.820895262675415142e+05 -1.900000000000000000e+04
-3.549480702589340945e+04 1.880355578714776202e+05 -1.100000000000000000e+04
-3.542635885688379494e+04 1.880498890992802626e+05 -1.300000000000000000e+04
-3.535791086923721741e+04 1.880642204673993401e+05 -1.500000000000000000e+04
-3.528946306205746805e+04 1.880785522528462461e+05 -1.700000000000000000e+04
-3.522101543533715449e+04 1.880928844556277327e+05 -1.900000000000000000e+04
-3.659667526585027372e+04 1.940448000680254772e+05 -1.100000000000000000e+04
-3.652814512972209195e+04 1.940587233684447710e+05 -1.300000000000000000e+04
-3.645961541147690150e+04 1.940726470889011398e+05 -1.500000000000000000e+04
-3.639108562782665103e+04 1.940865712277889252e+05 -1.700000000000000000e+04
-3.632255602133855427e+04 1.941004955088987481e+05 -1.900000000000000000e+04
-3.769730542027977208e+04 2.000542120533864072e+05 -1.100000000000000000e+04
-3.762869358455153997e+04 2.000677273804610595e+05 -1.300000000000000000e+04
-3.756008216156743583e+04 2.000812434064955742e+05 -1.500000000000000000e+04
-3.749147091045606066e+04 2.000947598536988953e+05 -1.700000000000000000e+04
-3.742285983226186363e+04 2.001082764450343966e+05 -1.900000000000000000e+04
-3.879669427077590808e+04 2.060637944960101158e+05 -1.100000000000000000e+04
-3.872800124419950589e+04 2.060769020816084230e+05 -1.300000000000000000e+04
-3.865930838535177463e+04 2.060900100902646955e+05 -1.500000000000000000e+04
-3.859061593575086590e+04 2.061031185228081886e+05 -1.700000000000000000e+04
-3.852192365386894380e+04 2.061162273784147692e+05 -1.900000000000000000e+04
-3.989483908412209712e+04 2.120735477864783315e+05 -1.100000000000000000e+04
-3.982606513646508392e+04 2.120862473075736489e+05 -1.300000000000000000e+04
-3.975729135222041805e+04 2.120989472536481917e+05 -1.500000000000000000e+04
-3.968851797164131131e+04 2.121116479026053566e+05 -1.700000000000000000e+04
-3.961974451320356457e+04 2.121243489756721829e+05 -1.900000000000000000e+04
CELLS 150 300
1 0
1 1
1 2
1 3
1 4
1 5
1 6
1 7
1 8
1 9
1 10
1 11
1 12
1 13
1 14
1 15
1 16
1 17
1 18
1 19
1 20
1 21
1 22
1 23
1 24
1 25
1 26
1 27
1 28
1 29
1 30
1 31
1 32
1 33
1 34
1 35
1 36
1 37
1 38
1 39
1 40
1 41
1 42
1 43
1 44
1 45
1 46
1 47
1 48
1 49
1 50
1 51
1 52
1 53
1 54
1 55
1 56
1 57
1 58
1 59
1 60
1 61
1 62
1 63
1 64
1 65
1 66
1 67
1 68
1 69
1 70
1 71
1 72
1 73
1 74
1 75
1 76
1 77
1 78
1 79
1 80
1 81
1 82
1 83
1 84
1 85
1 86
1 87
1 88
1 89
1 90
1 91
1 92
1 93
1 94
1 95
1 96
1 97
1 98
1 99
1 100
1 101
1 102
1 103
1 104
1 105
1 106
1 107
1 108
1 109
1 110
1 111
1 112
1 113
1 114
1 115
1 116
1 117
1 118
1 119
1 120
1 121
1 122
1 123
1 124
1 125
1 126
1 127
1 128
1 129
1 130
1 131
1 132
1 133
1 134
1 135
1 136
1 137
1 138
1 139
1 140
1 141
1 142
1 143
1 144
1 145
1 146
1 147
1 148
1 149
CELL_TYPES 150
1
1
1
1
1
1
1
1
1
1
1
1
1
1
1
1
1
1
1
1
1
1
1
1
1
1
1
1
1
1
1
1
1
1
1
1
1
1
1
1
1
1
1
1
1
1
1
1
1
1
1
1
1
1
1
1
1
1
1
1
1
1
1
1
1
1
1
1
1
1
1
1
1
1
1
1
1
1
1
1
1
1
1
1
1
1
1
1
1
1
1
1
1
1
1
1
1
1
1
1
1
1
1
1
1
1
1
1
1
1
1
1
1
1
1
1
1
1
1
1
1
1
1
1
1
1
1
1
1
1
1
1
1
1
1
1
1
1
1
1
1
1
1
1
1
1
1
1
1
1
POINT_DATA 150
SCALARS fault_number int
LOOKUP_TABLE default
1
1
1
1
1
1
1
1
1
1
1
1
1
1
1
1
1
1
1
1
1
1
1
1
1
1
1
1
1
1
1
1
1
1
1
1
1
1
1
1
1
1
1
1
1
1
1
1
1
1
1
1
1
1
1
1
1
1
1
1
1
1
1
1
1
1
1
1
1
1
1
1
1
1
1
1
1
1
1
1
1
1
1
1
1
1
1
1
1
1
1
1
1
1
1
1
1
1
1
1
1
1
1
1
1
1
1
1
1
1
1
1
1
1
1
1
1
1
1
1
1
1
1
1
1
1
1
1
1
1
1
1
1
1
1
1
1
1
1
1
1
1
1
1
1
1
1
1
1
1
SCALARS effective_shear_modulus float
LOOKUP_TABLE default
2.355728850994366455e+10
2.986175965034941101e+10
3.336516415040363693e+10
3.449712293457726288e+10
3.479230196151651764e+10
2.264053898469934464e+10
2.913251811877181244e+10
3.287730790267823029e+10
3.401778022678524017e+10
3.417404614822260284e+10
2.273598092956261826e+10
2.925671408925594330e+10
3.300689292697524261e+10
3.413589105603510284e+10
3.430149348573748398e+10
2.352263190845206833e+10
2.990753904250121689e+10
3.344604156482922363e+10
3.446071648730287933e+10
3.459947578332468414e+10
2.466161368611634445e+10
3.077608324489247513e+10
3.391910291139593887e+10
3.471653593178747559e+10
3.479246771318148804e+10
2.575195528668338394e+10
3.159792216579253387e+10
3.435788041349716187e+10
3.493535195243838501e+10
3.493902439127684021e+10
2.678893491103158188e+10
3.237137721680614853e+10
3.476249447718773651e+10
3.511771250382439423e+10
3.503986015349502563e+10
2.736491551717576981e+10
3.268297324514698792e+10
3.480178372327098083e+10
3.504656226576334381e+10
3.500021686398287201e+10
2.776358148548894882e+10
3.284652077721548843e+10
3.476195262690019989e+10
3.495899093947592163e+10
3.498631871046248627e+10
2.824212587398172379e+10
3.311626043736611176e+10
3.484329004380857086e+10
3.498587083794926453e+10
3.505361017509425354e+10
2.876365044053523254e+10
3.347356022930561447e+10
3.504290879104443359e+10
3.513474560083313751e+10
3.521919218338523102e+10
2.931760952065681839e+10
3.390418013684656906e+10
3.534370359768550110e+10
3.538859164022476959e+10
3.546974163032858276e+10
3.038495775777685165e+10
3.489226852045518494e+10
3.613504024456943512e+10
3.597786462406577301e+10
3.584534635298749542e+10
3.148848971346635818e+10
3.594201300167092896e+10
3.700255976876768494e+10
3.664934056120100403e+10
3.630594148449541473e+10
3.262940021740886688e+10
3.705604972892105865e+10
3.794913496078632355e+10
3.740545432300547791e+10
3.685322003867972565e+10
3.490083351943554688e+10
3.466927468749448395e+10
3.474014493489759064e+10
3.566176788680408478e+10
3.682900149037892914e+10
3.435090148124770737e+10
3.431203397270043182e+10
3.452023962848535156e+10
3.556499996045088959e+10
3.686596265857625580e+10
3.450963457421221924e+10
3.445756001501805878e+10
3.466121130983447266e+10
3.570069587052653503e+10
3.695673077925099182e+10
3.478676086163845825e+10
3.468955846296510315e+10
3.486829227419161224e+10
3.587402327128227997e+10
3.705649519603597260e+10
3.493101248017407990e+10
3.481522616036910248e+10
3.499712517219934082e+10
3.593171571294974518e+10
3.698898882008223724e+10
3.504856520525168610e+10
3.495069325895558167e+10
3.516190204876869202e+10
3.603463451663763428e+10
3.696772741038474274e+10
3.514013001393798065e+10
3.509652838395190430e+10
3.536319606498522949e+10
3.618319490571719360e+10
3.699280575429322052e+10
3.515453086036397552e+10
3.518681176684522247e+10
3.550743705366744232e+10
3.630592659904084778e+10
3.704682900256195068e+10
3.520195372082466125e+10
3.529977079755107117e+10
3.566273724532833099e+10
3.645991807751833344e+10
3.716637222905786133e+10
3.530331612656329346e+10
3.545532775026628876e+10
3.585985307631845093e+10
3.666360268615528870e+10
3.734185613064994812e+10
3.548146285315948486e+10
3.567493493063982391e+10
3.611577104866790009e+10
3.693366015015729523e+10
3.759324558766250610e+10
3.572509217664476776e+10
3.594802764416567993e+10
3.642025692029901123e+10
3.725632199535083008e+10
3.790287188406587219e+10
3.590659144934119415e+10
3.609100752125481415e+10
3.660804002792212677e+10
3.738442846634832764e+10
3.793974433051210785e+10
3.616425583800284576e+10
3.629097966328327942e+10
3.683025203098453522e+10
3.753286175639346313e+10
3.799779067943006897e+10
3.649887941166775513e+10
3.654839678076875305e+10
3.708719379834216309e+10
3.770172434871263885e+10
3.807702269726988220e+10
SCALARS density float
LOOKUP_TABLE default
2.574006475987466729e+03
2.658084165415659299e+03
2.700187526169821922e+03
2.714845492496338011e+03
2.722343978835807320e+03
2.557963028316929922e+03
2.643820580658818471e+03
2.688749221535341348e+03
2.704981038715604427e+03
2.712796275770620468e+03
2.560326456187536223e+03
2.647040442878036174e+03
2.692392493157222816e+03
2.707307345548491412e+03
2.713595054422490193e+03
2.570772520330855968e+03
2.657299507198016272e+03
2.701299639891201878e+03
2.713041241135535529e+03
2.716161423930172532e+03
2.583674492308842673e+03
2.669076113215135592e+03
2.710463145311207882e+03
2.718449600296792596e+03
2.718144931216018449e+03
2.595265580606187541e+03
2.679916348209068019e+03
2.719143453809966559e+03
2.723689096253197022e+03
2.720212545902832971e+03
2.605563271800193888e+03
2.689838181260392957e+03
2.727355998084649855e+03
2.728769203700424441e+03
2.722366867897864267e+03
2.611114709218635653e+03
2.693896942107849100e+03
2.729798785191499064e+03
2.731326142723258727e+03
2.726294547146843797e+03
2.615918504247930741e+03
2.696626126953599851e+03
2.730831682658440968e+03
2.733915969272021357e+03
2.732067296541359610e+03
2.622487487149717253e+03
2.701187700150690034e+03
2.733617961634679887e+03
2.737914940359617503e+03
2.738697972650581960e+03
2.630270603741065315e+03
2.707273520120521425e+03
2.738046371879847811e+03
2.743248843741741439e+03
2.746096002354215670e+03
2.638983800020133458e+03
2.714582949518467558e+03
2.743801040145612205e+03
2.749614735959590234e+03
2.753997362287686428e+03
2.656479871921549147e+03
2.727782433704550840e+03
2.751288117523052733e+03
2.753320568223873124e+03
2.755281480694349739e+03
2.674671112108130274e+03
2.741735207551599160e+03
2.759427836654389921e+03
2.757470776771936926e+03
2.756749321865681850e+03
2.693557521233296939e+03
2.756441270784374865e+03
2.768220196559080250e+03
2.762065360962172235e+03
2.758400885828049923e+03
2.724798123108163509e+03
2.720405203684930257e+03
2.722030110871695797e+03
2.739215696058674439e+03
2.763458395032493172e+03
2.716683515324624295e+03
2.714098014578097263e+03
2.716227609677451710e+03
2.733869048292603111e+03
2.759626913817405693e+03
2.718064040129961086e+03
2.717498500776415767e+03
2.721095548781289381e+03
2.738206686139702015e+03
2.761747212227327054e+03
2.720644057154258007e+03
2.722781287628769405e+03
2.728493556628802253e+03
2.745221663831253409e+03
2.766278367411934141e+03
2.722293608027252048e+03
2.727243305946989949e+03
2.735377596082882519e+03
2.751787640019609626e+03
2.770214576282973212e+03
2.724441067220039713e+03
2.732630494154173903e+03
2.743400273736835970e+03
2.759400927164905625e+03
2.774953624163347740e+03
2.727086035372023616e+03
2.738943987635477697e+03
2.752564511429225604e+03
2.768066072948078727e+03
2.780501242907134838e+03
2.731953099732160808e+03
2.744411869133708024e+03
2.758591802377749900e+03
2.773873126969492205e+03
2.784864551692681289e+03
2.738697338424578447e+03
2.750463038604932535e+03
2.764402443314270840e+03
2.779821428269694479e+03
2.790376948019066731e+03
2.746182985458169696e+03
2.757766604170131814e+03
2.771976881633158882e+03
2.787677528677060764e+03
2.797825653627316115e+03
2.754363963296158545e+03
2.766305809522075833e+03
2.781264955335267587e+03
2.797434992964872436e+03
2.807297953540499293e+03
2.762931331341250825e+03
2.775622656171001836e+03
2.791662875189886108e+03
2.808363533795461990e+03
2.817951084871941021e+03
2.761979863228862996e+03
2.774086622342800183e+03
2.790293181479090890e+03
2.804795774792534303e+03
2.811610565704462260e+03
2.761140835472186154e+03
2.772732327882133177e+03
2.789034432198819104e+03
2.801363680648949867e+03
2.805481239789604842e+03
2.760414248204667274e+03
2.771559772994179639e+03
2.787886627712318841e+03
2.798067251384110932e+03
2.799563106833644724e+03
SCALARS vs float
LOOKUP_TABLE default
3.025223384027076463e+03
3.351760281248316005e+03
3.515194390841267705e+03
3.564664265702946977e+03
3.574949103674964135e+03
2.975060901539065526e+03
3.319499721324472375e+03
3.496814908637694316e+03
3.546260413519952635e+03
3.549272775580869165e+03
2.979953848309259683e+03
3.324548702702421451e+03
3.501331900824290642e+03
3.550888220753065070e+03
3.555364059527666996e+03
3.024902360623445929e+03
3.354826925798950015e+03
3.518730018334539636e+03
3.563968484399219051e+03
3.569084754716751377e+03
3.089527178238983197e+03
3.395675699165587503e+03
3.537532081317410302e+03
3.573612511203429221e+03
3.577718841157741281e+03
3.150028026537754613e+03
3.433750211668685552e+03
3.554652296112851218e+03
3.581407628672571718e+03
3.583883705462187208e+03
3.206469220521652005e+03
3.469105821715988895e+03
3.570134334128337741e+03
3.587399003017029372e+03
3.587631355061696013e+03
3.237311298047602577e+03
3.483136811159097761e+03
3.570554109809370857e+03
3.582086664509634375e+03
3.583018880288311721e+03
3.257812061249233011e+03
3.490073401630515491e+03
3.567835247606529265e+03
3.575913596083696120e+03
3.578520820170916522e+03
3.281650849819015548e+03
3.501414354712614568e+03
3.570185966739792093e+03
3.574674646317626866e+03
3.577621837340743696e+03
3.306908487352194697e+03
3.516293497150608346e+03
3.577501465469514187e+03
3.578787697649749589e+03
3.581227875388918164e+03
3.333083973703576248e+03
3.534070926947762473e+03
3.589052719865214385e+03
3.587532433141223009e+03
3.588784592356480971e+03
3.382021567548633357e+03
3.576513976574270146e+03
3.624068089607682396e+03
3.614842806220142393e+03
3.606895300941662754e+03
3.431160408610778632e+03
3.620667333276638146e+03
3.661899951531182978e+03
3.645673186914176313e+03
3.629028181603961912e+03
3.480500498559859807e+03
3.666530996715033780e+03
3.702548303779633898e+03
3.680023575972285926e+03
3.655183235552930000e+03
3.578908897318106483e+03
3.569895737600359553e+03
3.572475665383838532e+03
3.608180639080895162e+03
3.650635691767256048e+03
3.555899238620222150e+03
3.555579707136111210e+03
3.564952483841861067e+03
3.606803656432152366e+03
3.655001754333885401e+03
3.563201781235227372e+03
3.560882986797099420e+03
3.569028511437918496e+03
3.610815149141379152e+03
3.658093899526839323e+03
3.575782400383178810e+03
3.569381468031462646e+03
3.574817432143543556e+03
3.614942175629560552e+03
3.660026800011132764e+03
3.582102865841762650e+03
3.572914480293706674e+03
3.576906056929787155e+03
3.613528973990632039e+03
3.654092691956372619e+03
3.586711028846093541e+03
3.576328518455373342e+03
3.580070559872612193e+03
3.613704925671274395e+03
3.649921747362673614e+03
3.589651084780661222e+03
3.579649155981006970e+03
3.584321787907619182e+03
3.615474149194083111e+03
3.647515372469219074e+03
3.587187839162875662e+03
3.580678625609384198e+03
3.587698817107617742e+03
3.617808271470773889e+03
3.647317510678309191e+03
3.585183967647214104e+03
3.582474139175755226e+03
3.591755220861998168e+03
3.621591571694554204e+03
3.649587087096213509e+03
3.585445239771170691e+03
3.585601534364899635e+03
3.596743553851216348e+03
3.626572570067383367e+03
3.653319906602140236e+03
3.589138035300311003e+03
3.591133234656017066e+03
3.603522790080191498e+03
3.633550741914374157e+03
3.659407023232653046e+03
3.595851271670429924e+03
3.598797086231394587e+03
3.611935800627749813e+03
3.642280263924204519e+03
3.667493652372280849e+03
3.605594846765640341e+03
3.606945128905787897e+03
3.622124172147189256e+03
3.650856678008142808e+03
3.673412088423199748e+03
3.619058292007937325e+03
3.617807203995787859e+03
3.633920581904569644e+03
3.660337457499889751e+03
3.680234734204096640e+03
3.636241606310670250e+03
3.631383310320657529e+03
3.647325028715385088e+03
3.670722602384034872e+03
3.687961590254335078e+03
SCALARS vp float
LOOKUP_TABLE default
5.222716949425059283e+03
5.704260322159074349e+03
5.918583423126858179e+03
5.988993265474105101e+03
6.023620482091584563e+03
5.129004204393816508e+03
5.632447447070237104e+03
5.865269322120685501e+03
5.944428376878597192e+03
5.981485829699962778e+03
5.143315401326039137e+03
5.648678401434185616e+03
5.882348261706385529e+03
5.955272984948476733e+03
5.985495807383384999e+03
5.205319093726211577e+03
5.700815753479239902e+03
5.924350387807344305e+03
5.981831469239764374e+03
5.997431110586359864e+03
5.281947388721940115e+03
5.761058517119861790e+03
5.967832944190224225e+03
6.006974551724550111e+03
6.006656901973030472e+03
5.350987396510290637e+03
5.816533496593060590e+03
6.009008239003243943e+03
6.031335142474442364e+03
6.016279854209487894e+03
5.412541427833949456e+03
5.867331621361016005e+03
6.047949090029667786e+03
6.054957129323222034e+03
6.026312006036043385e+03
5.444316295669861574e+03
5.887689196151752185e+03
6.059535225673637797e+03
6.066703980290254549e+03
6.044117058578038268e+03
5.469679420472792117e+03
5.900363468792587810e+03
6.064172119746082899e+03
6.078388824680960170e+03
6.070120886483844515e+03
5.504389016314249602e+03
5.921713001121599518e+03
6.076813616358523177e+03
6.096474689014708019e+03
6.099990389989264258e+03
5.545415692539290831e+03
5.950263126066944096e+03
6.096968924876066922e+03
6.120640875668660556e+03
6.133331049398059804e+03
5.591240927715677572e+03
5.984572392851523546e+03
6.123180340467393762e+03
6.149503105665213297e+03
6.168950054442178043e+03
5.680288918629841646e+03
6.044131607772173993e+03
6.155636373980360077e+03
6.165581572967124885e+03
6.174530529985340763e+03
5.771751876225070191e+03
6.106608405351925285e+03
6.190808311437020166e+03
6.183570903606986576e+03
6.180915439942240482e+03
5.865629803706645362e+03
6.172002784308195260e+03
6.228696148513134176e+03
6.203471094735285988e+03
6.188104784424956961e+03
6.035556225364392958e+03
6.016268785583187309e+03
6.023828638873954333e+03
6.101600114401995597e+03
6.208745311495995338e+03
5.999815237554718806e+03
5.987622915018979256e+03
5.997209757822641222e+03
6.077620172999607348e+03
6.192170961878713570e+03
6.006377625583379086e+03
6.003074831735011685e+03
6.018968995397406616e+03
6.096689900342287729e+03
6.201520552116306135e+03
6.018208842011394154e+03
6.027025050039892449e+03
6.052105258909678923e+03
6.127472510486673855e+03
6.221028026892314301e+03
6.025697613960374838e+03
6.047150357309049468e+03
6.082843611622789467e+03
6.156032771159583717e+03
6.237310949658418394e+03
6.035568510889042955e+03
6.071778259686861929e+03
6.119131039950338163e+03
6.189632584564870740e+03
6.257390472059355488e+03
6.047818930004988943e+03
6.100911605699203392e+03
6.160977209850228974e+03
6.228288426987830462e+03
6.281288528976847374e+03
6.069716486379707021e+03
6.125416185441079506e+03
6.187728727299162529e+03
6.253454120817781586e+03
6.299622182718096155e+03
6.099820921756138887e+03
6.151952493723392763e+03
6.212644152073263285e+03
6.278482393742852764e+03
6.322583186006358119e+03
6.133256451520500377e+03
6.184082709989930663e+03
6.245281282673237001e+03
6.311761471914231151e+03
6.353924580205036364e+03
6.169827415291721081e+03
6.221751686093120952e+03
6.285451873799943314e+03
6.353289951787282007e+03
6.394033365381246767e+03
6.208150699986701511e+03
6.262925854359038567e+03
6.330526341935366872e+03
6.399939396394487630e+03
6.439318193544735550e+03
6.203986811571399812e+03
6.256227608155219059e+03
6.324704373253927770e+03
6.385104743420892191e+03
6.413100847581397829e+03
6.200325607168845636e+03
6.250333518462941356e+03
6.319384915841415022e+03
6.370873000717740979e+03
6.387787711348113589e+03
6.197167087363388418e+03
6.245243586172087817e+03
6.314567971235263940e+03
6.357244168374583751e+03
6.363378783632511841e+03
