# vtk DataFile Version 2.0
Sampled points
ASCII
DATASET UNSTRUCTURED_GRID
POINTS 1000 double
4.355253240381830256e+04 -1.276665857624760683e+05 -5.000000000000000000e+02
4.358716682334536745e+04 -1.276619157442711294e+05 -1.500000000000000000e+03
4.362180097047255549e+04 -1.276572456313777657e+05 -2.500000000000000000e+03
4.365643509449251724e+04 -1.276525756998400320e+05 -3.500000000000000000e+03
4.369106944276647118e+04 -1.276479056719083164e+05 -4.500000000000000000e+03
4.277965165745930426e+04 -1.224151520985695970e+05 -5.000000000000000000e+02
4.281435667037540406e+04 -1.224112606826660485e+05 -1.500000000000000000e+03
4.284906141507330176e+04 -1.224073691715597670e+05 -2.500000000000000000e+03
4.288376638810012810e+04 -1.224034775635601691e+05 -3.500000000000000000e+03
4.291847158862419747e+04 -1.223995855817520933e+05 -4.500000000000000000e+03
4.200737259030896530e+04 -1.171636440161211940e+05 -5.000000000000000000e+02
4.204214802064809192e+04 -1.171605312264647946e+05 -1.500000000000000000e+03
4.207692343530696235e+04 -1.171574183402337658e+05 -2.500000000000000000e+03
4.211169908158856560e+04 -1.171543050796894531e+05 -3.500000000000000000e+03
4.214647471125356969e+04 -1.171511914456695376e+05 -4.500000000000000000e+03
4.123569650615214778e+04 -1.119120618413209449e+05 -5.000000000000000000e+02
4.127054242464203708e+04 -1.119097274241879059e+05 -1.500000000000000000e+03
4.130538833169831923e+04 -1.119073929099568195e+05 -2.500000000000000000e+03
4.134023422639971250e+04 -1.119050580217257084e+05 -3.500000000000000000e+03
4.137508010966825532e+04 -1.119027230363956769e+05 -4.500000000000000000e+03
4.046462520138820400e+04 -1.066604050688271818e+05 -5.000000000000000000e+02
4.049954143072987790e+04 -1.066588490483180940e+05 -1.500000000000000000e+03
4.053445765291689895e+04 -1.066572929301822005e+05 -2.500000000000000000e+03
4.056937362003887392e+04 -1.066557367152142688e+05 -3.500000000000000000e+03
4.060428982791726594e+04 -1.066541804018212133e+05 -4.500000000000000000e+03
4.025608806943149102e+04 -1.004663960727392696e+05 -5.000000000000000000e+02
4.029104045192246122e+04 -1.004654278328876244e+05 -1.500000000000000000e+03
4.032599283051933162e+04 -1.004644594950151513e+05 -2.500000000000000000e+03
4.036094495821378950e+04 -1.004634913368242705e+05 -3.500000000000000000e+03
4.039589732992599602e+04 -1.004625230798146222e+05 -4.500000000000000000e+03
4.060954108185634686e+04 -9.333003196369469515e+04 -5.000000000000000000e+02
4.064449552947023767e+04 -9.332946087804574927e+04 -1.500000000000000000e+03
4.067944997542310739e+04 -9.332888969411974540e+04 -2.500000000000000000e+03
4.071440442061681097e+04 -9.332831868882341951e+04 -3.500000000000000000e+03
4.074935886415088316e+04 -9.332774758524951176e+04 -4.500000000000000000e+03
4.096251089285123453e+04 -8.619358729310979834e+04 -5.000000000000000000e+02
4.099746736739708285e+04 -8.619341336482600309e+04 -1.500000000000000000e+03
4.103242384344825405e+04 -8.619323961492083617e+04 -2.500000000000000000e+03
4.106738056756866717e+04 -8.619306576566008152e+04 -3.500000000000000000e+03
4.110233704386920726e+04 -8.619289154177738237e+04 -4.500000000000000000e+03
4.131499585802382353e+04 -7.905706219603958016e+04 -5.000000000000000000e+02
4.134995456877129618e+04 -7.905728542748754262e+04 -1.500000000000000000e+03
4.138491303594134661e+04 -7.905750883789047657e+04 -2.500000000000000000e+03
4.141987175343712443e+04 -7.905773214868127252e+04 -3.500000000000000000e+03
4.145483047271255055e+04 -7.905795508376248472e+04 -4.500000000000000000e+03
4.166699482766352594e+04 -7.192045625281595858e+04 -5.000000000000000000e+02
4.170195573647601123e+04 -7.192107664721016772e+04 -1.500000000000000000e+03
4.173691640305992769e+04 -7.192169694339108537e+04 -2.500000000000000000e+03
4.177187682849988050e+04 -7.192231741828663507e+04 -3.500000000000000000e+03
4.180683750545066141e+04 -7.192293751638746471e+04 -4.500000000000000000e+03
4.183138592352878914e+04 -6.497257020954589825e+04 -5.000000000000000000e+02
4.186634875085562089e+04 -6.497329532687189931e+04 -1.500000000000000000e+03
4.190131158390423661e+04 -6.497402034488302888e+04 -2.500000000000000000e+03
4.193627417547588993e+04 -6.497474526441910712e+04 -3.500000000000000000e+03
4.197123677277249226e+04 -6.497547008464341343e+04 -4.500000000000000000e+03
4.180838879443108453e+04 -5.821341535572730936e+04 -5.000000000000000000e+02
4.184335374099873297e+04 -5.821395275120809674e+04 -1.500000000000000000e+03
4.187831869223024114e+04 -5.821449004709057772e+04 -2.500000000000000000e+03
4.191328340025693615e+04 -5.821502696729834133e+04 -3.500000000000000000e+03
4.194824836081978719e+04 -5.821556406398298714e+04 -4.500000000000000000e+03
4.178534452773840167e+04 -5.145420184172248992e+04 -5.000000000000000000e+02
4.182031152626623953e+04 -5.145455123549073323e+04 -1.500000000000000000e+03
4.185527852839471598e+04 -5.145490052937583823e+04 -2.500000000000000000e+03
4.189024528814568475e+04 -5.145525000114760041e+04 -3.500000000000000000e+03
4.192521229747552570e+04 -5.145559909526634146e+04 -4.500000000000000000e+03
4.176225289962312672e+04 -4.469492902572728781e+04 -5.000000000000000000e+02
4.179722188439728779e+04 -4.469509069175232435e+04 -1.500000000000000000e+03
4.183219062504894100e+04 -4.469525225845594105e+04 -2.500000000000000000e+03
4.186715936822954973e+04 -4.469541372499149293e+04 -3.500000000000000000e+03
4.190212836059738038e+04 -4.469557509051533998e+04 -4.500000000000000000e+03
4.173911368928344018e+04 -3.793559709697262588e+04 -5.000000000000000000e+02
4.177408459386343748e+04 -3.793557103229603672e+04 -1.500000000000000000e+03
4.180905525324492919e+04 -3.793554486801434541e+04 -2.500000000000000000e+03
4.184402591313261655e+04 -3.793551832635490427e+04 -3.500000000000000000e+03
4.187899682208079321e+04 -3.793549196032545296e+04 -4.500000000000000000e+03
4.171783956674154615e+04 -3.173979911251709564e+04 -5.000000000000000000e+02
4.175276129142106947e+04 -3.173910502824823197e+04 -1.500000000000000000e+03
4.178768301371089183e+04 -3.173841084352399048e+04 -2.500000000000000000e+03
4.182260498001504311e+04 -3.173771655749427373e+04 -3.500000000000000000e+03
4.185752694393067213e+04 -3.173702217100802227e+04 -4.500000000000000000e+03
4.169843780418335518e+04 -2.610754405900605343e+04 -5.000000000000000000e+02
4.173325979310599359e+04 -2.610570193508905868e+04 -1.500000000000000000e+03
4.176808177207699191e+04 -2.610385943405570288e+04 -2.500000000000000000e+03
4.180290374216705823e+04 -2.610201683283835155e+04 -3.500000000000000000e+03
4.183772570421615819e+04 -2.610017440837121831e+04 -4.500000000000000000e+03
4.167900327057347749e+04 -2.047524779560418392e+04 -5.000000000000000000e+02
4.171372555609299889e+04 -2.047225733933058655e+04 -1.500000000000000000e+03
4.174844782601468614e+04 -2.046926678314623496e+04 -2.500000000000000000e+03
4.178316983405128121e+04 -2.046627612789635168e+04 -3.500000000000000000e+03
4.181789182648829592e+04 -2.046328537273190886e+04 -4.500000000000000000e+03
4.165953622668710887e+04 -1.484291027080449203e+04 -5.000000000000000000e+02
4.169415859603407444e+04 -1.483877146721561985e+04 -1.500000000000000000e+03
4.172878094414099905e+04 -1.483463284091655078e+04 -2.500000000000000000e+03
4.176340327101212461e+04 -1.483049439190887824e+04 -3.500000000000000000e+03
4.179802557377291669e+04 -1.482635528938145399e+04 -4.500000000000000000e+03
4.164003644108885055e+04 -9.210531434920112588e+03 -5.000000000000000000e+02
4.167455892906149529e+04 -9.205244545111761909e+03 -1.500000000000000000e+03
4.170908138824672642e+04 -9.199957555922152096e+03 -2.500000000000000000e+03
4.174360406554615474e+04 -9.194670743437709461e+03 -3.500000000000000000e+03
4.177812646715889423e+04 -9.189383555486907426e+03 -4.500000000000000000e+03
4.067644036681522994e+04 -3.582312794114661301e+03 -5.000000000000000000e+02
4.071068141705195012e+04 -3.575672299511350502e+03 -1.500000000000000000e+03
4.074492243090958073e+04 -3.569031706822187516e+03 -2.500000000000000000e+03
4.077916340758571459e+04 -3.562390739067548111e+03 -3.500000000000000000e+03
4.081340434868752345e+04 -3.555749950204646666e+03 -4.500000000000000000e+03
3.876963624874223751e+04 2.041886164939481205e+03 -5.000000000000000000e+02
3.880341447693943337e+04 2.050086122158873422e+03 -1.500000000000000000e+03
3.883719266026462719e+04 2.058286175151235511e+03 -2.500000000000000000e+03
3.887097055197164445e+04 2.066486600043622275e+03 -3.500000000000000000e+03
3.890474864555284148e+04 2.074686844584578012e+03 -4.500000000000000000e+03
3.686457730654678016e+04 7.666409178522037109e+03 -5.000000000000000000e+02
3.689789334021586546e+04 7.676168740134972722e+03 -1.500000000000000000e+03
3.693120931988969824e+04 7.685928672177264161e+03 -2.500000000000000000e+03
3.696452524640053161e+04 7.695688697703099024e+03 -3.500000000000000000e+03
3.699784112058397295e+04 7.705448539769674426e+03 -4.500000000000000000e+03
3.496126737201246578e+04 1.329125769196056171e+04 -5.000000000000000000e+02
3.499412208811297023e+04 1.330257700152416874e+04 -1.500000000000000000e+03
3.502697698761295032e+04 1.331389667995361378e+04 -2.500000000000000000e+03
3.505983182586746261e+04 1.332521644960284902e+04 -3.500000000000000000e+03
3.509268635823141085e+04 1.333653603282670156e+04 -4.500000000000000000e+03
3.305971101453513256e+04 1.891643259346630657e+04 -5.000000000000000000e+02
3.309210553797801549e+04 1.892931207306422220e+04 -1.500000000000000000e+03
3.312450023852600134e+04 1.894219136539587271e+04 -2.500000000000000000e+03
3.315689462459050264e+04 1.895507074604527588e+04 -3.500000000000000000e+03
3.318928869530597876e+04 1.896795049192301667e+04 -4.500000000000000000e+03
3.097558949036019112e+04 2.378871451573474042e+04 -5.000000000000000000e+02
3.100787632379357092e+04 2.380204574979757672e+04 -1.500000000000000000e+03
3.104016308640824354e+04 2.381537679546239815e+04 -2.500000000000000000e+03
[...]
POINT_DATA 1000
SCALARS fault_number int
LOOKUP_TABLE default
4
4
4
4
4
4
4
4
4
4
4
4
4
4
4
4
4
4
4
4
4
4
4
4
4
4
4
4
4
4
4
4
4
4
4
4
4
4
4
4
4
4
4
4
4
4
4
4
4
4
4
4
4
4
4
4
4
4
4
4
4
4
4
4
4
4
4
4
4
4
4
4
4
4
4
4
4
4
4
4
4
4
4
4
4
4
4
4
4
4
4
4
4
4
4
4
4
4
4
4
4
4
4
4
4
4
4
4
4
4
4
4
4
4
4
4
4
4
4
4
4
4
4
4
4
4
4
4
4
4
4
4
4
4
4
4
4
4
4
4
4
4
4
4
4
4
4
4
4
4
4
4
4
4
4
4
4
4
4
4
4
4
4
4
4
4
4
4
4
4
4
4
4
4
4
4
4
4
4
4
4
4
4
4
4
4
4
4
4
4
4
4
4
4
4
4
4
4
4
4
4
4
4
4
4
4
4
4
4
4
4
4
4
4
4
4
4
4
4
4
4
4
4
4
4
4
4
4
4
4
4
4
4
4
4
4
4
4
4
4
4
4
4
4
4
4
4
4
4
4
4
4
4
4
4
4
4
4
4
4
4
4
4
4
4
4
4
4
4
4
4
4
4
4
4
4
4
4
4
4
4
4
4
4
4
4
4
4
4
4
4
4
4
4
4
4
4
4
4
4
4
4
4
4
4
4
4
4
4
4
4
4
4
4
4
4
4
4
4
4
4
4
4
4
4
4
4
4
4
4
4
4
4
4
4
4
4
4
4
4
4
4
4
4
4
4
4
4
4
4
4
4
4
4
4
4
4
4
4
4
4
4
4
4
4
4
4
4
4
4
4
4
4
4
4
4
4
4
4
4
4
4
4
4
4
4
4
4
4
4
4
4
4
4
4
4
4
4
4
4
4
4
4
4
4
4
4
4
4
4
4
4
4
4
4
4
4
4
4
4
4
4
4
4
4
4
4
4
4
4
4
4
4
4
4
4
4
4
4
4
4
4
4
4
4
4
4
4
4
4
4
4
4
4
4
4
4
4
4
4
4
4
4
4
4
4
4
4
4
4
4
4
4
4
4
4
4
4
4
4
4
4
4
4
4
4
4
4
4
4
4
4
4
4
4
4
4
4
4
4
4
4
4
4
4
4
4
4
4
4
4
4
4
4
4
4
4
4
4
4
4
4
4
4
4
4
4
4
4
4
4
4
4
4
4
4
4
4
4
4
4
4
4
4
4
4
4
4
4
4
4
4
4
4
4
4
4
4
4
4
4
4
4
4
4
4
4
4
4
4
4
4
4
4
4
4
4
4
4
4
4
4
4
4
4
4
4
4
4
4
4
4
4
4
4
4
4
4
4
4
4
4
4
4
4
4
4
4
4
4
4
4
4
4
4
4
4
4
4
4
4
4
4
4
4
4
4
4
4
4
4
4
4
4
4
4
4
4
4
4
4
4
4
4
4
4
4
4
4
4
4
4
4
4
4
4
4
4
4
4
4
4
4
4
4
4
4
4
4
4
4
4
4
4
4
4
4
4
4
4
4
4
4
4
4
4
4
4
4
4
4
4
4
4
4
4
4
4
4
4
4
4
4
4
4
4
4
4
4
4
4
4
4
4
4
4
4
4
4
4
4
4
4
4
4
4
4
4
4
4
4
4
4
4
4
4
4
4
4
4
4
4
4
4
4
4
4
4
4
4
4
4
4
4
4
4
4
4
4
4
4
4
4
4
4
4
4
4
4
4
4
4
4
4
4
4
4
4
4
4
4
4
4
4
4
4
4
4
4
4
4
4
4
4
4
4
4
4
4
4
4
4
4
4
4
4
4
4
4
4
4
4
4
4
4
4
4
4
4
4
4
4
4
4
4
4
4
4
4
4
4
4
4
4
4
4
4
4
4
4
4
4
4
4
4
4
4
4
4
4
4
4
4
4
4
4
4
4
4
4
4
4
4
4
4
4
4
4
4
4
4
4
4
4
4
4
4
4
4
4
4
4
4
4
4
4
4
4
4
4
4
4
4
4
4
4
4
4
4
4
4
4
4
4
4
4
4
4
4
4
4
4
4
4
4
4
4
4
4
4
4
4
4
4
4
4
4
4
4
4
4
4
4
4
4
4
4
4
4
4
4
4
4
4
4
4
4
4
4
4
4
4
4
4
4
4
4
4
4
4
4
4
4
4
4
4
4
4
4
4
4
4
4
4
4
4
4
4
4
4
4
4
4
4
4
4
4
4
4
4
4
4
4
4
4
4
4
4
4
4
SCALARS effective_shear_modulus float
LOOKUP_TABLE default
2.312002934617493820e+10
2.709393212410078430e+10
2.990664523242249298e+10
3.129527098009504318e+10
3.218111513196961975e+10
2.296362043065996552e+10
2.687945762229022598e+10
2.962183699807078552e+10
3.093168460029389191e+10
3.174679039621721268e+10
2.273764337027812576e+10
2.660771993416860199e+10
2.929976568413041306e+10
3.055706663174595642e+10
3.131943795524960327e+10
2.244350170466178513e+10
2.627992032869447327e+10
2.894127988978743744e+10
3.017172002264306259e+10
3.089891855119121933e+10
2.271720495271070099e+10
2.655429429706560135e+10
2.921350703059764481e+10
3.044174042360362625e+10
3.115330138251197433e+10
2.335846981442972946e+10
2.719546868580487061e+10
2.983952517590185547e+10
3.104311054031229782e+10
3.172449988350732803e+10
2.418605440661674881e+10
2.801610590415229797e+10
3.063210476293244934e+10
3.179382828115166092e+10
3.243052073369810486e+10
2.502605349313424683e+10
2.884857070311811066e+10
3.143809390187210846e+10
3.256156849197069168e+10
3.315398742177981949e+10
2.534871634957108688e+10
2.916403439384953690e+10
3.177786293240858078e+10
3.296227696036210251e+10
3.360700529109453964e+10
2.524637126788872910e+10
2.905959940639192581e+10
3.173997557133186722e+10
3.306300873784896851e+10
3.383874855720208359e+10
2.512552040461375427e+10
2.893945732921638870e+10
3.168651717962223053e+10
3.314566376669173813e+10
3.405178945598611069e+10
2.498724585887567902e+10
2.880024407726981354e+10
3.161163446406002808e+10
3.320440588701195908e+10
3.423967041682826233e+10
2.497253373841682816e+10
2.858516946265877914e+10
3.123068354164333344e+10
3.271306688781365204e+10
3.366812623047631454e+10
2.505019395074641037e+10
2.831419515859672546e+10
3.062584742676947784e+10
3.182090490714292145e+10
3.254459893144838333e+10
2.512762586253635788e+10
2.804488544820111465e+10
3.002885031247203827e+10
3.094488712954163361e+10
3.144574571851685715e+10
2.519839682124965668e+10
2.779946339225296402e+10
2.948838084618955994e+10
3.015577799900292969e+10
3.045965091849805832e+10
2.527677066228158188e+10
2.768741598184281540e+10
2.920438748681334686e+10
2.973293227010626602e+10
2.991748668709941101e+10
2.539396737719958878e+10
2.787479055582160568e+10
2.947076149553865814e+10
3.008286724519323349e+10
3.029508147654087830e+10
2.551151565969250107e+10
2.806300876036859131e+10
2.973872862006602859e+10
3.043542116274849319e+10
3.067566157744266510e+10
2.562941600450921631e+10
2.825207248304345322e+10
3.000829352596481705e+10
3.079060316234324265e+10
3.105923761968636703e+10
2.567896442347048569e+10
2.838206291361902237e+10
3.023393718663902664e+10
3.112233379284098053e+10
3.143471169982823181e+10
2.552837603815940094e+10
2.828157476044823837e+10
3.020774435820469284e+10
3.119180587615423584e+10
3.154958084670008087e+10
2.512759893505629730e+10
2.787657726973599243e+10
2.982001442179040146e+10
3.084308015250497818e+10
3.121956288168279266e+10
2.475278021240658951e+10
2.748833561985115814e+10
2.943194021879883575e+10
3.046932660135045624e+10
3.084641186854808044e+10
2.440349056574116898e+10
2.711661024653905106e+10
2.904360755861647034e+10
3.007108496113454819e+10
3.043102834223672867e+10
2.410312717315535736e+10
2.678761929190283966e+10
2.868396254849504089e+10
2.967979436480116653e+10
3.000851511226219940e+10
2.385777104657381058e+10
2.651144881239295197e+10
2.836920796832894897e+10
2.931996232034632492e+10
2.961222744095551682e+10
2.378717478880516434e+10
2.645958638042355347e+10
2.834525320740808868e+10
2.933183152245014954e+10
2.968328157296564865e+10
2.368189695149631500e+10
2.637745861415558624e+10
2.830052289796875763e+10
2.933666196883494949e+10
2.976359331223790741e+10
2.369702694578894043e+10
2.643709752112722397e+10
2.842960485311799240e+10
2.955834089545433426e+10
3.011132010689206696e+10
2.368812180354522324e+10
2.648746769842693329e+10
2.856628682512611771e+10
2.980584716156663895e+10
3.050035246335490799e+10
2.365675075090380478e+10
2.652942008587071991e+10
2.871115794841896439e+10
3.008012073612308502e+10
3.093266344384236908e+10
2.395767196198999786e+10
2.690323794760128021e+10
2.915864998069344330e+10
3.059867436095060349e+10
3.151450651286699295e+10
2.453955774949948120e+10
2.754561739376192093e+10
2.983727263213107300e+10
3.128643043078917694e+10
3.218229049039527130e+10
2.514732009406377029e+10
2.820263522794451523e+10
3.051421679400823212e+10
3.195155436225887680e+10
3.281284701323545837e+10
2.562368691402306366e+10
2.870745829949118042e+10
3.102146297698737717e+10
3.243369258587784958e+10
3.325879224756982040e+10
2.595516088350909424e+10
2.905222770999475098e+10
3.135935933750831985e+10
3.274374542205307007e+10
3.353840483207285309e+10
2.601792534765422058e+10
2.912706782489831924e+10
3.143127982686735153e+10
3.279592284150657272e+10
3.358235881902034378e+10
2.570125395925479889e+10
2.882875959009987259e+10
3.114677790761226273e+10
3.251713714076966095e+10
3.333438868225378799e+10
2.536253276791045761e+10
2.850704084753578186e+10
3.084044612635465240e+10
3.222117450227088547e+10
3.307223142393030930e+10
2.496229719508526993e+10
2.810675794241924286e+10
3.043990697410879135e+10
3.181761317334944916e+10
3.270512071747846222e+10
2.444199519958151245e+10
2.756742207738587952e+10
2.988951870395194244e+10
3.126287055038234711e+10
3.219733470110345459e+10
2.382527050016223145e+10
2.692752463456966400e+10
2.924614350945815277e+10
3.063515690010391235e+10
3.162945127821905518e+10
2.311655645566055298e+10
2.619131156843545914e+10
2.851343719764051819e+10
2.993719904264822769e+10
3.100348018677941895e+10
2.271273752488272858e+10
2.582351863326718521e+10
2.821789621063013840e+10
2.974809381241685104e+10
3.090781302252631378e+10
2.302488588815522766e+10
2.627263889870630646e+10
2.881445169724713516e+10
3.049479521269826508e+10
3.173574969145381546e+10
2.329903077900165939e+10
2.668140988309648514e+10
2.936852757052955627e+10
3.119774681476188278e+10
3.251540058584006119e+10
2.330167026544885254e+10
2.680031452294146347e+10
2.962637409735435486e+10
3.161123135848637009e+10
3.302191015038898849e+10
2.303292233353064728e+10
2.662716131540580750e+10
2.958329903817786789e+10
3.172808263101660156e+10
3.324713420074034500e+10
2.249849690227564240e+10
2.616551134685704803e+10
2.924024951173970413e+10
3.154638083886075592e+10
3.318753153807059479e+10
3.254184044341966629e+10
3.267928976863684464e+10
3.259158787833242035e+10
3.241851870444409943e+10
3.216036654210015869e+10
3.204758916903522873e+10
3.215166115130406570e+10
3.205785629618630981e+10
3.189306760195608902e+10
3.165732766461869812e+10
3.156912410789640427e+10
3.164265026508807755e+10
3.153949668364844894e+10
3.138080450491076660e+10
3.116636985128971100e+10
3.110604679202037430e+10
3.115176532450466156e+10
3.103612003349587631e+10
3.088141845024826813e+10
3.068722911866907883e+10
3.133138825477650833e+10
3.135138520980355835e+10
3.121366319278884125e+10
3.104648337664209747e+10
3.084949195822704697e+10
3.186759556658711243e+10
3.185552168138335800e+10
3.168893270673796082e+10
3.149578902953249359e+10
3.127599372628047562e+10
3.252730545420796204e+10
3.247485008231809235e+10
3.227411076174312210e+10
3.204861690445049667e+10
3.179857840879237747e+10
3.320154575902310181e+10
3.310662116766602707e+10
3.287045154947591019e+10
3.261348208359915543e+10
3.233620194188978195e+10
3.369620726615398407e+10
3.363577016075168610e+10
3.342676721833224869e+10
3.321226648633851242e+10
3.299270323405122375e+10
3.404664600574032974e+10
3.408520487132806396e+10
3.395482962736720657e+10
3.384294236479551315e+10
3.374987321840328979e+10
3.437944509431903076e+10
3.451726267661688232e+10
3.446476842352341461e+10
3.445436579672331238e+10
3.448653133911149597e+10
3.468695039443782806e+10
3.492401719057043457e+10
3.494931260523191833e+10
3.503958505064556885e+10
3.519568191102634430e+10
3.406914283533213806e+10
3.430739451452291489e+10
3.438196374228962708e+10
3.452008571307733154e+10
3.472271414675532532e+10
3.277947284750102615e+10
3.294673881013601303e+10
3.304706561384498978e+10
3.319159552799078369e+10
3.338103852540089798e+10
3.152166865773187256e+10
3.162115277994023132e+10
3.174580422364529800e+10
3.189622766720983887e+10
3.207287409960815048e+10
3.039596729503548431e+10
3.043597464942549133e+10
3.058160028395428085e+10
3.073688800987477112e+10
3.090203452268859482e+10
2.975679566607295227e+10
2.974129492067919922e+10
2.987252417326280975e+10
3.000562856953358841e+10
3.014067439284889984e+10
3.010511288432151413e+10
3.002341379916493607e+10
3.005078460124769211e+10
3.008971302307376480e+10
3.014030550370302200e+10
3.045598350638581848e+10
3.030723432110326385e+10
3.022974382191336060e+10
3.017393101835499573e+10
3.013983324455902863e+10
3.080941591208090591e+10
3.059276120522220993e+10
3.040940315830344772e+10
3.025828264892302322e+10
3.013925777936355972e+10
3.116441795744366074e+10
3.088160838532360458e+10
3.058659382851515198e+10
3.033461454256757355e+10
3.012523694910998917e+10
3.127271690774143219e+10
3.094658076256108093e+10
3.057193829841511917e+10
3.024631560457295990e+10
2.996898169726114273e+10
3.094055961875981140e+10
3.060259173003781509e+10
3.020640752231700516e+10
2.985508206544175720e+10
2.954788982536573029e+10
3.055440410958121109e+10
3.020150827783964157e+10
2.978835596711449814e+10
2.941484376372571945e+10
2.908027432697592926e+10
3.011542929382646561e+10
2.974465474144968033e+10
2.931910032747728348e+10
2.892693785214600372e+10
2.856752397251958084e+10
2.966344612184778214e+10
2.927507204896919632e+10
2.884345168363583374e+10
2.843839027757918930e+10
2.805932747967766190e+10
2.924095800906793213e+10
2.884211949474072266e+10
2.841506361890717316e+10
2.800719923186272430e+10
2.761805500464325714e+10
2.939230053814893723e+10
2.905796256390796661e+10
2.868014204020785522e+10
2.830807399042844772e+10
2.794168687391588211e+10
2.957099802099138260e+10
2.931566826204010391e+10
2.899730447340955734e+10
2.867043556029362106e+10
2.833372200474189758e+10
3.007414678893438721e+10
2.996798980273510361e+10
2.979237905854852295e+10
2.960227038110032272e+10
2.939730381169192123e+10
3.063121404827032852e+10
3.067577101474063873e+10
3.063327340432778931e+10
3.056594373526426697e+10
3.047342398049377441e+10
3.124584972486783218e+10
3.144391413691440964e+10
3.152539375321447372e+10
3.156364008642701340e+10
3.155817230001412201e+10
3.188002993906663895e+10
3.213230809528398895e+10
3.226971092919937134e+10
3.235657565340505219e+10
3.239238834954627991e+10
3.249730257924417496e+10
3.272648439364136124e+10
3.286837238790020370e+10
3.296214870665139771e+10
3.300730257295380783e+10
3.306996732309411621e+10
3.327107117154419708e+10
3.341485640664295959e+10
3.351275777691817474e+10
3.356427816202332306e+10
3.346886300737072372e+10
3.364804167560488892e+10
3.379516048525261307e+10
3.389815921879761887e+10
3.395655117132814026e+10
3.371603185517464447e+10
3.388197043245097733e+10
3.403517817759601212e+10
3.414566602606682205e+10
3.421294966278248978e+10
3.376390327363945770e+10
3.394221157022266006e+10
3.411607924196447372e+10
3.425203379194295120e+10
3.434962047358237457e+10
3.357160645261767578e+10
3.379828036773555374e+10
3.401319976031519318e+10
3.419919125322084045e+10
3.435575582778719711e+10
3.336635664046355438e+10
3.364174672228340530e+10
3.389711179142032242e+10
3.413325462784998322e+10
3.434968590853332901e+10
3.307546762689979553e+10
3.342828151552138901e+10
3.376226237357160187e+10
3.409220000572370529e+10
3.441771448580793762e+10
3.266657911776303101e+10
3.312637863488815308e+10
3.357552545948039246e+10
3.404328249109164047e+10
3.452966900915019989e+10
3.220284404702501678e+10
3.277075106981961823e+10
3.333197919359746933e+10
3.393778331340825272e+10
3.458894894603975677e+10
3.168574916424020386e+10
3.236248574212112045e+10
3.303238043505611038e+10
3.377603586230516815e+10
3.459543276816385651e+10
3.166855340701885986e+10
3.239615757246385193e+10
3.308913364392877960e+10
3.386903892206231308e+10
3.473933981592227173e+10
3.250127122560452652e+10
3.318675008111227417e+10
3.378898298653447723e+10
3.444843619089663696e+10
3.516666808442086029e+10
3.327799427665841675e+10
3.390631162849816132e+10
3.439560986276962280e+10
3.491514279180726624e+10
3.546550227384804535e+10
3.380677122678740311e+10
3.439527613920587921e+10
3.478109209792788696e+10
3.517939933250205231e+10
3.559029702007675171e+10
3.407991425150321579e+10
3.464709749653751373e+10
3.494053765204865265e+10
3.523811993419451141e+10
3.553973725776094818e+10
3.409350677228975677e+10
3.465843265324053192e+10
3.487190994691185760e+10
3.509055267576927948e+10
3.531420300910281372e+10
3.186029121780274200e+10
3.152040072920957565e+10
3.131223853577820969e+10
3.123429491712583160e+10
3.144099757598138809e+10
3.135373222680069733e+10
3.098494536202496338e+10
3.074097361699034500e+10
3.062013695821269608e+10
3.081226993016753769e+10
3.085643369470586777e+10
3.045424974312041855e+10
3.017056188294033432e+10
3.000348968237437820e+10
3.017781143297224808e+10
3.036821833643838501e+10
2.992828067160031509e+10
2.960112193723408890e+10
2.938463555761775970e+10
2.953803955048715210e+10
3.055179265200462341e+10
3.015664819562515259e+10
2.986624596870904160e+10
2.967876971920599747e+10
2.984963757403817368e+10
3.101450271591783524e+10
3.071331408236141205e+10
3.050706741470105362e+10
3.039444969524468613e+10
3.060688025441121674e+10
3.158222746268856049e+10
3.140035641784372711e+10
3.130103319912824631e+10
3.128344792690012741e+10
3.154973142443432236e+10
3.216755602563031006e+10
3.210751030059686661e+10
3.211663959558140182e+10
3.219448635774723053e+10
3.251526681077315140e+10
3.285329482543429184e+10
3.279413193081217575e+10
3.280972423354853821e+10
3.289965153917424011e+10
3.320066163198499298e+10
3.362222405046738815e+10
3.346061543532805252e+10
3.339668548254438019e+10
3.342977239282426453e+10
3.364868929023902512e+10
3.436836910010343933e+10
3.410089093627064133e+10
3.395553993711159515e+10
3.393124270497911835e+10
3.406741944827214432e+10
3.508594164325239563e+10
3.471165483667385101e+10
3.448454767865415955e+10
3.440297272323142242e+10
3.445680539586428070e+10
3.465242688057083893e+10
3.430977994458174133e+10
3.412017193875516129e+10
3.408232250317359924e+10
3.415137279999087524e+10
3.337083419405115509e+10
3.316055269930303192e+10
3.309498728510644150e+10
3.317395427797180939e+10
3.333000808248425674e+10
3.211982479551602554e+10
3.203612873677502823e+10
3.208958852424083328e+10
3.228104862374765778e+10
3.252119751718725204e+10
3.099878475041477966e+10
3.102612074010057831e+10
3.118434525963740921e+10
3.147518608917773438e+10
3.178990049342757416e+10
3.025723139296779251e+10
3.035456341201811981e+10
3.057818152316922379e+10
3.093032954237036133e+10
3.129527432120753479e+10
3.021235291960001755e+10
3.030544309030299377e+10
3.052207589336712265e+10
3.086434733072585678e+10
3.123683951144377518e+10
3.016738494939834213e+10
3.025630120836217499e+10
3.046601774838940430e+10
3.079848007835566711e+10
3.117851829292439651e+10
3.012232792059102249e+10
3.020713798216107178e+10
3.041000711828277969e+10
3.073272763367623520e+10
3.112031048193317032e+10
3.006387076058389664e+10
3.014989250569525909e+10
3.034777877127133942e+10
3.065912497672202301e+10
3.105144619182289124e+10
2.988785371132532501e+10
3.000201582833294678e+10
3.021211382439252853e+10
3.051944549123603821e+10
3.091661221278563690e+10
2.947809879022131348e+10
2.964483060925045776e+10
2.988421556328606796e+10
3.019729421558547211e+10
3.060203413398873901e+10
2.902227692962764740e+10
2.924004131748007202e+10
2.951281617356579971e+10
2.984141694979243851e+10
3.025801283441364288e+10
2.852174607378819275e+10
2.878888961048856735e+10
2.909896879875608826e+10
2.945262199282608795e+10
2.988524141729433441e+10
2.802580594742206955e+10
2.833719807275051117e+10
2.868650675661766434e+10
2.907430468172120285e+10
2.952539189915424728e+10
2.759701755463277054e+10
2.794290946828137207e+10
2.832823155391455841e+10
2.875370721987253189e+10
2.922225508114860535e+10
2.790013439134436798e+10
2.818201762215925980e+10
2.851685125425416183e+10
2.890542565622250748e+10
2.933803161187464905e+10
2.826333157583006287e+10
2.845931156459267044e+10
2.872374743388728714e+10
2.905965289280746078e+10
2.944799901047994995e+10
2.933555533357141113e+10
2.941912501030635834e+10
2.957888862269441986e+10
2.981561041868574142e+10
3.012920162369735718e+10
3.041364346727371979e+10
3.038875469054582214e+10
3.045035903731428146e+10
3.059882234929526901e+10
3.084899790483438873e+10
3.148611980180692291e+10
3.134941120793183136e+10
3.131287971115445328e+10
3.137641313021088409e+10
3.156535523879179764e+10
3.231364731489520645e+10
3.212260785720640182e+10
3.204046376733150864e+10
3.206678091293760681e+10
3.221994698300217819e+10
3.291899965064187622e+10
3.269980470402474213e+10
3.259462282431177139e+10
3.260282625835955048e+10
3.273213984117314529e+10
3.345976750001712418e+10
3.320219254800691605e+10
3.306472914681942749e+10
3.304648088936252975e+10
3.315074123906818771e+10
3.383727843008442307e+10
3.354365238991438293e+10
3.337551786649532318e+10
3.333172392877175903e+10
3.341674038143210983e+10
3.408368828922116470e+10
3.376142252058169174e+10
3.356880396896937561e+10
3.350448233511104965e+10
3.357660788197084045e+10
3.423582985060802460e+10
3.391420813522352219e+10
3.371421516774637985e+10
3.363426204804146576e+10
3.369910681764970779e+10
3.429099628925158691e+10
3.400793635503270340e+10
3.382357417217312241e+10
3.373657224529706192e+10
3.380027658670535278e+10
3.433444422048335648e+10
3.408999426987393188e+10
3.392152229042577362e+10
3.382789541395946121e+10
3.388972034211331558e+10
3.447355287683703613e+10
3.426122214467938995e+10
3.410346484942709732e+10
3.399929537102897263e+10
3.405883888521285248e+10
3.467964198420590210e+10
3.449295841798667908e+10
3.434127862555050659e+10
3.422371640876462936e+10
3.427877170764632416e+10
3.483530492899948883e+10
3.467422935921483612e+10
3.452956902475668335e+10
3.440049910155823517e+10
3.444789296799427032e+10