# vtk DataFile Version 2.0
Sampled points
ASCII
DATASET UNSTRUCTURED_GRID
POINTS 200 double
7.451828604864070076e+04 -2.224401371677699499e+05 -1.000000000000000000e+03
7.458347888533008518e+04 -2.224149523987733701e+05 -3.000000000000000000e+03
7.464867147907578328e+04 -2.223897672981928044e+05 -5.000000000000000000e+03
7.471386433190367825e+04 -2.223645821400425630e+05 -7.000000000000000000e+03
7.477905669153583585e+04 -2.223393966517355002e+05 -9.000000000000000000e+03
7.334049610286424286e+04 -2.194456506807486585e+05 -1.000000000000000000e+03
7.340588523148754030e+04 -2.194209926886304456e+05 -3.000000000000000000e+03
7.347127412138276850e+04 -2.193963343628126022e+05 -5.000000000000000000e+03
7.353666277418188110e+04 -2.193716759801440348e+05 -7.000000000000000000e+03
7.360205118825873069e+04 -2.193470172637642245e+05 -9.000000000000000000e+03
7.216322475428275357e+04 -2.164510596635201655e+05 -1.000000000000000000e+03
7.222880998390796594e+04 -2.164269284934765310e+05 -3.000000000000000000e+03
7.229439497905988537e+04 -2.164027969876055431e+05 -5.000000000000000000e+03
7.235997948960319627e+04 -2.163786651472981612e+05 -7.000000000000000000e+03
7.242556376720342087e+04 -2.163545332480275538e+05 -9.000000000000000000e+03
7.098647274818408187e+04 -2.134563641399792396e+05 -1.000000000000000000e+03
7.105225363729627861e+04 -2.134327598387241596e+05 -3.000000000000000000e+03
7.111803429473198776e+04 -2.134091549226275529e+05 -5.000000000000000000e+03
7.118381472199132259e+04 -2.133855496685581165e+05 -7.000000000000000000e+03
7.124959492210176541e+04 -2.133619446302600263e+05 -9.000000000000000000e+03
6.981024082668617484e+04 -2.104615635808026709e+05 -1.000000000000000000e+03
6.987621718362017418e+04 -2.104384861937535461e+05 -3.000000000000000000e+03
6.994219331321229402e+04 -2.104154081897117139e+05 -5.000000000000000000e+03
7.000816946692700731e+04 -2.103923298442122468e+05 -7.000000000000000000e+03
7.007414539630168292e+04 -2.103692514354569139e+05 -9.000000000000000000e+03
6.824688574441357923e+04 -2.059679375577049796e+05 -1.000000000000000000e+03
6.831303126425761729e+04 -2.059453388968885120e+05 -3.000000000000000000e+03
6.837917656059823639e+04 -2.059227396169931744e+05 -5.000000000000000000e+03
6.844532213469101407e+04 -2.059001399922600249e+05 -7.000000000000000000e+03
6.851146748815958563e+04 -2.058775403021885431e+05 -9.000000000000000000e+03
6.629700645012706809e+04 -1.999753891171031282e+05 -1.000000000000000000e+03
6.636329501671623439e+04 -1.999532210101308301e+05 -3.000000000000000000e+03
6.642958336301919189e+04 -1.999310522820639017e+05 -5.000000000000000000e+03
6.649587149059236981e+04 -1.999088832097391423e+05 -7.000000000000000000e+03
6.656215965049444640e+04 -1.998867140687986393e+05 -9.000000000000000000e+03
6.434884850735023792e+04 -1.939825409004278481e+05 -1.000000000000000000e+03
6.441527980596605630e+04 -1.939608034266381874e+05 -3.000000000000000000e+03
6.448171088898451126e+04 -1.939390656066035735e+05 -5.000000000000000000e+03
6.454814150531363703e+04 -1.939173271646997309e+05 -7.000000000000000000e+03
6.461457190753159375e+04 -1.938955886533864832e+05 -9.000000000000000000e+03
6.240241691282905231e+04 -1.879893917782021454e+05 -1.000000000000000000e+03
6.246899037793955358e+04 -1.879680850184457377e+05 -3.000000000000000000e+03
6.253556363074050023e+04 -1.879467779104057699e+05 -5.000000000000000000e+03
6.260213666987113538e+04 -1.879254701771936088e+05 -7.000000000000000000e+03
6.266870924844375986e+04 -1.879041623737967457e+05 -9.000000000000000000e+03
6.045771665865794785e+04 -1.819959400732546637e+05 -1.000000000000000000e+03
6.052443197335134755e+04 -1.819750641073402367e+05 -3.000000000000000000e+03
6.059114707777178410e+04 -1.819541875142070639e+05 -5.000000000000000000e+03
6.065786197320172505e+04 -1.819333105707303330e+05 -7.000000000000000000e+03
6.072457666093328589e+04 -1.819124335537904990e+05 -9.000000000000000000e+03
5.870584408063510637e+04 -1.763755507712077233e+05 -1.000000000000000000e+03
5.877261668926945276e+04 -1.763548470488286694e+05 -3.000000000000000000e+03
5.883938908856966736e+04 -1.763341426980249234e+05 -5.000000000000000000e+03
5.890616102928473993e+04 -1.763134377199171577e+05 -7.000000000000000000e+03
5.897293276323896862e+04 -1.762927326671418268e+05 -9.000000000000000000e+03
5.714654240234430472e+04 -1.711282753696978034e+05 -1.000000000000000000e+03
5.721328765164928336e+04 -1.711074850339775439e+05 -3.000000000000000000e+03
5.728003269144512888e+04 -1.710866943463642092e+05 -5.000000000000000000e+03
5.734677726997479476e+04 -1.710659027542120602e+05 -7.000000000000000000e+03
5.741352163899943844e+04 -1.710451108101574064e+05 -9.000000000000000000e+03
5.558846254689308989e+04 -1.658807987333052733e+05 -1.000000000000000000e+03
5.565518042532102845e+04 -1.658599218025358859e+05 -3.000000000000000000e+03
5.572189784370093548e+04 -1.658390445205943834e+05 -5.000000000000000000e+03
5.578861504989043897e+04 -1.658181666095225955e+05 -7.000000000000000000e+03
5.585533229299874802e+04 -1.657972880682395189e+05 -9.000000000000000000e+03
5.403160734637919813e+04 -1.606331200750435528e+05 -1.000000000000000000e+03
5.409829784269561787e+04 -1.606121565673853329e+05 -3.000000000000000000e+03
5.416498787750148767e+04 -1.605911927082086040e+05 -5.000000000000000000e+03
5.423167769987661450e+04 -1.605702284964379214e+05 -7.000000000000000000e+03
5.429836755654591252e+04 -1.605492633772212721e+05 -9.000000000000000000e+03
5.247598013041403465e+04 -1.553852386086763581e+05 -1.000000000000000000e+03
5.254264323328806495e+04 -1.553641885422714695e+05 -3.000000000000000000e+03
5.260930612226333324e+04 -1.553431381229317340e+05 -5.000000000000000000e+03
5.267596854847020586e+04 -1.553220873516643769e+05 -7.000000000000000000e+03
5.274263100849275361e+04 -1.553010359495480952e+05 -9.000000000000000000e+03
5.092305095994822477e+04 -1.505136709497326228e+05 -1.000000000000000000e+03
5.098964940060013032e+04 -1.504924246035220276e+05 -3.000000000000000000e+03
5.105624762487689441e+04 -1.504711779044499563e+05 -5.000000000000000000e+03
5.112284538390766102e+04 -1.504499308535270102e+05 -7.000000000000000000e+03
5.118944317544045043e+04 -1.504286834487172600e+05 -9.000000000000000000e+03
4.937273626497244550e+04 -1.460184196211151138e+05 -1.000000000000000000e+03
4.943923258527768485e+04 -1.459968675404837704e+05 -3.000000000000000000e+03
4.950572868572341395e+04 -1.459753151074883644e+05 -5.000000000000000000e+03
4.957222481394242641e+04 -1.459537620442791376e+05 -7.000000000000000000e+03
4.963872072230587946e+04 -1.459322086286941194e+05 -9.000000000000000000e+03
4.782348532410165353e+04 -1.415229703672367614e+05 -1.000000000000000000e+03
4.788987987880539731e+04 -1.415011125462800846e+05 -3.000000000000000000e+03
4.795627421016698645e+04 -1.414792543734611245e+05 -5.000000000000000000e+03
4.802266856582095352e+04 -1.414573955709273578e+05 -7.000000000000000000e+03
4.808906269813625113e+04 -1.414355364165195497e+05 -9.000000000000000000e+03
4.627530062428636302e+04 -1.370273228172233212e+05 -1.000000000000000000e+03
4.634159351879636961e+04 -1.370051589739449555e+05 -3.000000000000000000e+03
4.640788643500059698e+04 -1.369829947784111719e+05 -5.000000000000000000e+03
4.647417912538378005e+04 -1.369608305084083404e+05 -7.000000000000000000e+03
4.654047133943056542e+04 -1.369386656110393233e+05 -9.000000000000000000e+03
4.472818440003521391e+04 -1.325314757727136021e+05 -1.000000000000000000e+03
4.479437574206296995e+04 -1.325090061788089224e+05 -3.000000000000000000e+03
4.486056710230458702e+04 -1.324865362331569195e+05 -5.000000000000000000e+03
4.492675823227675573e+04 -1.324640659366451146e+05 -7.000000000000000000e+03
4.499294888340235775e+04 -1.324415952901708079e+05 -9.000000000000000000e+03
7.484424906008182734e+04 -2.223142111072560947e+05 -1.100000000000000000e+04
7.490944168614753289e+04 -2.222890252283027803e+05 -1.300000000000000000e+04
7.497463432105485117e+04 -2.222638392931781418e+05 -1.500000000000000000e+04
7.503982646283478243e+04 -2.222386530278492428e+05 -1.700000000000000000e+04
7.510501836169119633e+04 -2.222134664308840293e+05 -1.900000000000000000e+04
7.366743986389855854e+04 -2.193223582108694245e+05 -1.100000000000000000e+04
7.373282880425929034e+04 -2.192976993751735426e+05 -1.300000000000000000e+04
7.379821775768026419e+04 -2.192730404811904009e+05 -1.500000000000000000e+04
7.386360622219787911e+04 -2.192483812548855203e+05 -1.700000000000000000e+04
7.392899419787275838e+04 -2.192237216962347156e+05 -1.900000000000000000e+04
7.249114856223118841e+04 -2.163304012856115005e+05 -1.100000000000000000e+04
7.255673362612327037e+04 -2.163062695383086102e+05 -1.300000000000000000e+04
7.262231845709128538e+04 -2.162821377320134197e+05 -1.500000000000000000e+04
7.268790305361233186e+04 -2.162580055898455903e+05 -1.700000000000000000e+04
7.275348716401853017e+04 -2.162338728363293339e+05 -1.900000000000000000e+04
7.131537539518064295e+04 -2.133383398049919924e+05 -1.100000000000000000e+04
7.138115639123665460e+04 -2.133147351913846796e+05 -1.300000000000000000e+04
7.144693715866662387e+04 -2.132911305166450038e+05 -1.500000000000000000e+04
7.151271744441683404e+04 -2.132675252283765003e+05 -1.700000000000000000e+04
7.157849749848747160e+04 -2.132439193252154218e+05 -1.900000000000000000e+04
7.014012135432660580e+04 -2.103461735158325173e+05 -1.100000000000000000e+04
7.020609784102771664e+04 -2.103230960826366208e+05 -1.300000000000000000e+04
7.027207435187531519e+04 -2.103000183079438866e+05 -1.500000000000000000e+04
7.033805038537840301e+04 -2.102769399175698054e+05 -1.700000000000000000e+04
7.040402594458710519e+04 -2.102538614652415563e+05 -1.900000000000000000e+04
6.857761287381922011e+04 -2.058549410992210032e+05 -1.100000000000000000e+04
6.864375829176364641e+04 -2.058323423833189881e+05 -1.300000000000000000e+04
6.870990373763331445e+04 -2.058097433238383965e+05 -1.500000000000000000e+04
6.877604921131765877e+04 -2.057871439208076918e+05 -1.700000000000000000e+04
6.884219421448724461e+04 -2.057645444537384028e+05 -1.900000000000000000e+04
6.662844809539147536e+04 -1.998645454116899637e+05 -1.100000000000000000e+04
6.669473632715374697e+04 -1.998423775178489450e+05 -1.300000000000000000e+04
6.676102458842474152e+04 -1.998202090016065631e+05 -1.500000000000000000e+04
6.682731288073204632e+04 -1.997980401398008398e+05 -1.700000000000000000e+04
6.689360095563199138e+04 -1.997758712106043822e+05 -1.900000000000000000e+04
6.468100259905373241e+04 -1.938738509008338151e+05 -1.100000000000000000e+04
6.474743357841200486e+04 -1.938521136301864171e+05 -1.300000000000000000e+04
6.481386484015001042e+04 -1.938303757338760479e+05 -1.500000000000000000e+04
6.488029588632568630e+04 -1.938086374912770116e+05 -1.700000000000000000e+04
6.494672646873204212e+04 -1.937868991804938996e+05 -1.900000000000000000e+04
6.273528211921770708e+04 -1.878828553271955461e+05 -1.100000000000000000e+04
6.280185552913488209e+04 -1.878615484823899169e+05 -1.300000000000000000e+04
6.286842897771900607e+04 -1.878402415649083268e+05 -1.500000000000000000e+04
6.293500246352701652e+04 -1.878189342978997156e+05 -1.700000000000000000e+04
6.300157523661596497e+04 -1.877976264081077534e+05 -1.900000000000000000e+04
6.079129164379951544e+04 -1.818915572916699457e+05 -1.100000000000000000e+04
6.085800716858230589e+04 -1.818706812294340634e+05 -1.300000000000000000e+04
6.092472248573657998e+04 -1.818498050937037042e+05 -1.500000000000000000e+04
6.099143759405050514e+04 -1.818289286075569689e+05 -1.700000000000000000e+04
6.105815224258475064e+04 -1.818080514953433885e+05 -1.900000000000000000e+04
5.903970504344718938e+04 -1.762720286438057665e+05 -1.100000000000000000e+04
5.910647786622248532e+04 -1.762513248192154279e+05 -1.300000000000000000e+04
5.917325048098078696e+04 -1.762306206430432503e+05 -1.500000000000000000e+04
5.924002263833682082e+04 -1.762099161164489342e+05 -1.700000000000000000e+04
5.930679458768360928e+04 -1.761892112382643099e+05 -1.900000000000000000e+04
5.748026655371191737e+04 -1.710243201721411606e+05 -1.100000000000000000e+04
5.754701175988110481e+04 -1.710035297337404627e+05 -1.300000000000000000e+04
5.761375700575361407e+04 -1.709827389423036657e+05 -1.500000000000000000e+04
5.768050179296953138e+04 -1.709619478000388481e+05 -1.700000000000000000e+04
5.774724637071609322e+04 -1.709411563058320899e+05 -1.900000000000000000e+04
5.592204982946652308e+04 -1.657764105569530511e+05 -1.100000000000000000e+04
5.598876765685334976e+04 -1.657555335218789987e+05 -1.300000000000000000e+04
5.605548552248235501e+04 -1.657346561334215221e+05 -1.500000000000000000e+04
5.612220292799313029e+04 -1.657137783937855274e+05 -1.700000000000000000e+04
5.618892012257368333e+04 -1.656929003018594231e+05 -1.900000000000000000e+04
5.436505770355642017e+04 -1.605282990108292142e+05 -1.100000000000000000e+04
5.443174838988901320e+04 -1.605073353962036199e+05 -1.300000000000000000e+04
5.449843886382077471e+04 -1.604863714289508644e+05 -1.500000000000000000e+04
5.456512887637581298e+04 -1.604654071101133013e+05 -1.700000000000000000e+04
5.463181867653758673e+04 -1.604444424386391474e+05 -1.900000000000000000e+04
5.280929375592888391e+04 -1.552799850230846205e+05 -1.100000000000000000e+04
5.287595679088836187e+04 -1.552589345722312573e+05 -1.300000000000000000e+04
5.294261986198296654e+04 -1.552378840442762594e+05 -1.500000000000000000e+04
5.300928247023503354e+04 -1.552168331643918646e+05 -1.700000000000000000e+04
5.307594486348875216e+04 -1.551957816546329414e+05 -1.900000000000000000e+04
5.125604125159260002e+04 -1.504074365196988510e+05 -1.100000000000000000e+04
5.132263936240324256e+04 -1.503861897905840015e+05 -1.300000000000000000e+04
5.138923775565227697e+04 -1.503649429834533657e+05 -1.500000000000000000e+04
5.145583568377525080e+04 -1.503436958244115231e+05 -1.700000000000000000e+04
5.152243339552645921e+04 -1.503224483124599210e+05 -1.900000000000000000e+04
4.970521691262903914e+04 -1.459106559663489461e+05 -1.100000000000000000e+04
4.977171338382556132e+04 -1.458891037803394138e+05 -1.300000000000000000e+04
4.983820963528157881e+04 -1.458675512419016159e+05 -1.500000000000000000e+04
4.990470541812946612e+04 -1.458459983520492387e+05 -1.700000000000000000e+04
4.997120123095156305e+04 -1.458244453857141489e+05 -1.900000000000000000e+04
4.815545710758816858e+04 -1.414136777390195057e+05 -1.100000000000000000e+04
4.822185179522585531e+04 -1.413918198153104750e+05 -1.300000000000000000e+04
4.828824601189753594e+04 -1.413699618175573996e+05 -1.500000000000000000e+04
4.835464000422137178e+04 -1.413481031910059974e+05 -1.700000000000000000e+04
4.842103427053596533e+04 -1.413262442106457020e+05 -1.900000000000000000e+04
4.660676382683017437e+04 -1.369165011911467882e+05 -1.100000000000000000e+04
4.667305683714373299e+04 -1.368943375247110962e+05 -1.300000000000000000e+04
4.673934962069689209e+04 -1.368721735068783746e+05 -1.500000000000000000e+04
4.680564192891207495e+04 -1.368500091385486885e+05 -1.700000000000000000e+04
4.687193450745773589e+04 -1.368278444169701834e+05 -1.900000000000000000e+04
4.505913980513058050e+04 -1.324191253986352822e+05 -1.100000000000000000e+04
4.512533124501598650e+04 -1.323966559842317074e+05 -1.300000000000000000e+04
4.519152245362236863e+04 -1.323741859420422988e+05 -1.500000000000000000e+04
4.525771343287585478e+04 -1.323517158258805284e+05 -1.700000000000000000e+04
4.532390418194969971e+04 -1.323292453587876225e+05 -1.900000000000000000e+04
CELLS 200 400
1 0
1 1
1 2
1 3
1 4
1 5
1 6
1 7
1 8
1 9
1 10
1 11
1 12
1 13
1 14
1 15
1 16
1 17
1 18
1 19
1 20
1 21
1 22
1 23
1 24
1 25
1 26
1 27
1 28
1 29
1 30
1 31
1 32
1 33
1 34
1 35
1 36
1 37
1 38
1 39
1 40
1 41
1 42
1 43
1 44
1 45
1 46
1 47
1 48
1 49
1 50
1 51
1 52
1 53
1 54
1 55
1 56
1 57
1 58
1 59
1 60
1 61
1 62
1 63
1 64
1 65
1 66
1 67
1 68
1 69
1 70
1 71
1 72
1 73
1 74
1 75
1 76
1 77
1 78
1 79
1 80
1 81
1 82
1 83
1 84
1 85
1 86
1 87
1 88
1 89
1 90
1 91
1 92
1 93
1 94
1 95
1 96
1 97
1 98
1 99
1 100
1 101
1 102
1 103
1 104
1 105
1 106
1 107
1 108
1 109
1 110
1 111
1 112
1 113
1 114
1 115
1 116
1 117
1 118
1 119
1 120
1 121
1 122
1 123
1 124
1 125
1 126
1 127
1 128
1 129
1 130
1 131
1 132
1 133
1 134
1 135
1 136
1 137
1 138
1 139
1 140
1 141
1 142
1 143
1 144
1 145
1 146
1 147
1 148
1 149
1 150
1 151
1 152
1 153
1 154
1 155
1 156
1 157
1 158
1 159
1 160
1 161
1 162
1 163
1 164
1 165
1 166
1 167
1 168
1 169
1 170
1 171
1 172
1 173
1 174
1 175
1 176
1 177
1 178
1 179
1 180
1 181
1 182
1 183
1 184
1 185
1 186
1 187
1 188
1 189
1 190
1 191
1 192
1 193
1 194
1 195
1 196
1 197
1 198
1 199
CELL_TYPES 200
1
1
1
1
1
1
1
1
1
1
1
1
1
1
1
1
1
1
1
1
1
1
1
1
1
1
1
1
1
1
1
1
1
1
1
1
1
1
1
1
1
1
1
1
1
1
1
1
1
1
1
1
1
1
1
1
1
1
1
1
1
1
1
1
1
1
1
1
1
1
1
1
1
1
1
1
1
1
1
1
1
1
1
1
1
1
1
1
1
1
1
1
1
1
1
1
1
1
1
1
1
1
1
1
1
1
1
1
1
1
1
1
1
1
1
1
1
1
1
1
1
1
1
1
1
1
1
1
1
1
1
1
1
1
1
1
1
1
1
1
1
1
1
1
1
1
1
1
1
1
1
1
1
1
1
1
1
1
1
1
1
1
1
1
1
1
1
1
1
1
1
1
1
1
1
1
1
1
1
1
1
1
1
1
1
1
1
1
1
1
1
1
1
1
1
1
1
1
1
1
POINT_DATA 200
SCALARS fault_number int
LOOKUP_TABLE default
2
2
2
2
2
2
2
2
2
2
2
2
2
2
2
2
2
2
2
2
2
2
2
2
2
2
2
2
2
2
2
2
2
2
2
2
2
2
2
2
2
2
2
2
2
2
2
2
2
2
2
2
2
2
2
2
2
2
2
2
2
2
2
2
2
2
2
2
2
2
2
2
2
2
2
2
2
2
2
2
2
2
2
2
2
2
2
2
2
2
2
2
2
2
2
2
2
2
2
2
2
2
2
2
2
2
2
2
2
2
2
2
2
2
2
2
2
2
2
2
2
2
2
2
2
2
2
2
2
2
2
2
2
2
2
2
2
2
2
2
2
2
2
2
2
2
2
2
2
2
2
2
2
2
2
2
2
2
2
2
2
2
2
2
2
2
2
2
2
2
2
2
2
2
2
2
2
2
2
2
2
2
2
2
2
2
2
2
2
2
2
2
2
2
2
2
2
2
2
2
SCALARS effective_shear_modulus float
LOOKUP_TABLE default
2.188642155493371964e+10
2.802921108253926849e+10
3.146112448771376419e+10
3.289467362444594574e+10
3.351324006990119171e+10
2.246934231380578995e+10
2.839547427732698059e+10
3.150882320459516525e+10
3.278314722817412186e+10
3.334236968033402252e+10
2.336067910425326157e+10
2.902160301687095261e+10
3.171744829256861115e+10
3.274742466246851730e+10
3.316450054966474533e+10
2.416475823560850143e+10
2.958949119709702301e+10
3.191458109750380707e+10
3.272798638753263474e+10
3.301527743267393112e+10
2.487529608272439575e+10
3.009698114512668991e+10
3.210014068480541992e+10
3.272480727074772644e+10
3.289450005129387283e+10
2.576576374794533539e+10
3.074845968573614883e+10
3.236072220987471390e+10
3.275273203081636429e+10
3.276631382475125504e+10
2.664839407414496613e+10
3.143043324328998566e+10
3.267602625355981445e+10
3.283998868270490646e+10
3.267932285079471588e+10
2.716467349274482727e+10
3.189231385814138031e+10
3.295227657528919983e+10
3.298134955734225845e+10
3.268517256673363113e+10
2.667159554972346115e+10
3.152607745120674896e+10
3.281390666299613190e+10
3.305042162778327179e+10
3.297318345154380798e+10
2.614420057498445511e+10
3.113379016151968765e+10
3.265094350496298218e+10
3.307666936401684189e+10
3.319575213715316391e+10
2.567660064917202377e+10
3.078574822312794113e+10
3.249582863956103516e+10
3.306636307990365601e+10
3.333519753726908493e+10
2.526625840809005737e+10
3.047963226216965103e+10
3.235007152872881699e+10
3.302831322254517365e+10
3.340821480568616867e+10
2.486908229279190063e+10
3.019120327882851028e+10
3.221128278062646866e+10
3.297067700263211060e+10
3.342599524526806641e+10
2.472194049215155029e+10
3.025839396874032211e+10
3.239905660385420990e+10
3.311920785928313446e+10
3.341796912060784912e+10
2.459139288908899689e+10
3.036092850592378616e+10
3.263551839076093674e+10
3.331252284615114594e+10
3.343071723613295746e+10
2.445958527072328186e+10
3.047543834693252182e+10
3.289886223669820786e+10
3.353399390358217621e+10
3.345844955543650436e+10
2.445432699262633896e+10
3.064352097151150131e+10
3.317286108613301086e+10
3.376410053404557037e+10
3.349579237091021729e+10
2.483272200367794037e+10
3.097028518358057022e+10
3.336698545986303329e+10
3.386889389341067123e+10
3.349026334071991348e+10
2.511059880058645248e+10
3.110474629520026398e+10
3.331148880782901382e+10
3.373319041382435608e+10
3.330851984680447769e+10
2.515047559566884232e+10
3.087873013124519730e+10
3.282931767672345352e+10
3.317275440588740540e+10
3.279525521910132599e+10
3.334751333115491104e+10
3.259459492141783142e+10
3.255762176560347748e+10
3.320758132153634644e+10
3.356351084009384918e+10
3.314611860883325195e+10
3.240982184894044876e+10
3.240517136081149673e+10
3.306680445839960480e+10
3.343222166248770905e+10
3.290514163677975845e+10
3.220538115696379471e+10
3.223474174245270920e+10
3.291094652490761566e+10
3.329238567526182556e+10
3.269708778050212097e+10
3.202968688352894211e+10
3.208972245659633636e+10
3.278015545860705566e+10
3.317673161449159622e+10
3.252167024390450668e+10
3.188254147037691116e+10
3.196998211129578400e+10
3.267431513443787003e+10
3.308515389531811523e+10
3.231905631242710495e+10
3.171571432594862366e+10
3.183834114436619949e+10
3.256318209707694244e+10
3.299358473805184937e+10
3.214473382061833954e+10
3.157797903313120270e+10
3.173819320803557205e+10
3.248967445627460861e+10
3.294349903820138550e+10
3.207623026930632401e+10
3.153332578827931595e+10
3.172091115924353409e+10
3.249816323743109894e+10
3.297267698849269867e+10
3.243130196044511795e+10
3.178631405684081650e+10
3.191838569003997040e+10
3.269797730790688705e+10
3.321158339788031387e+10
3.272479031355759811e+10
3.199605408092309189e+10
3.208241306879077530e+10
3.286107557031733322e+10
3.340414569878824997e+10
3.293014159060823822e+10
3.214467578019628525e+10
3.220005376003780365e+10
3.297622468402466202e+10
3.353868289709651947e+10
3.306387838505852509e+10
3.224352939986773300e+10
3.227980444656912994e+10
3.305237226834254456e+10
3.362619260457729721e+10
3.313781559833398438e+10
3.230732953445775986e+10
3.233974808476961136e+10
3.310917459984307861e+10
3.368519108126438522e+10
3.309126643753066635e+10
3.238968680785657120e+10
3.251266814173136902e+10
3.330320455817700577e+10
3.384335292858577728e+10
3.304142626840766907e+10
3.245527119416172028e+10
3.266245886810010529e+10
3.348190196839056015e+10
3.400187576535574722e+10
3.298761203803141022e+10
3.249721983821073914e+10
3.277726722827171326e+10
3.363091961962074661e+10
3.414667215406034088e+10
3.293055054337771606e+10
3.251770579349279022e+10
3.285943494192972183e+10
3.375172562357982254e+10
3.427761525484128952e+10
3.287923985949158478e+10
3.254066206184425735e+10
3.294731362806733322e+10
3.387854396115292358e+10
3.440079042949082947e+10
3.268118701502890015e+10
3.237134331568280029e+10
3.281505370253606796e+10
3.379119239409119797e+10
3.432208589391367722e+10
3.218920422299802399e+10
3.183226590927919769e+10
3.226629495379394531e+10
3.329513419676630402e+10
3.386990044909708023e+10
SCALARS density float
LOOKUP_TABLE default
2.593326922577630739e+03
2.665361520433249552e+03
2.689466190936534531e+03
2.688904039693622053e+03
2.681591035663112962e+03
2.600791026647918443e+03
2.668314186435070496e+03
2.688218061947742626e+03
2.687415261852867388e+03
2.681829414464158617e+03
2.612445961137088489e+03
2.673136013764373729e+03
2.686620849908460968e+03
2.685147499601874188e+03
2.681464059703740986e+03
2.622911922895583302e+03
2.677489319809199969e+03
2.685184991431364779e+03
2.683133161300935171e+03
2.681159604333122843e+03
2.632188912764248016e+03
2.681374104551787241e+03
2.683910486662538460e+03
2.681372247336934834e+03
2.680916048360571949e+03
2.643795840797159144e+03
2.686233721150603742e+03
2.682245261569054037e+03
2.679190685753618254e+03
2.680678217356546156e+03
2.655672383610386987e+03
2.691256150395796794e+03
2.680469179993884154e+03
2.677028037994659826e+03
2.680551740415369750e+03
2.663612639271484113e+03
2.694727162608325671e+03
2.679227492824457386e+03
2.675704879744491791e+03
2.680627037208804722e+03
2.657175737013459639e+03
2.693762957555589310e+03
2.683023336245944392e+03
2.681304768838803284e+03
2.686676246631531285e+03
2.650153846280277321e+03
2.691953433564240186e+03
2.685775932205265690e+03
2.685805275161992540e+03
2.691779517926725475e+03
2.643765184958203918e+03
2.689702858019423729e+03
2.687210238459423636e+03
2.688786400204573965e+03
2.695538595768294272e+03
2.637990175312030715e+03
2.687162838356688098e+03
2.687615204831628944e+03
2.690561881082564014e+03
2.698220539474159523e+03
2.632599638618356494e+03
2.684444554731353492e+03
2.687300219470451793e+03
2.691448524089002149e+03
2.700076408729451941e+03
2.638517199398062985e+03
2.691024356021666790e+03
2.692389238347105675e+03
2.695131680598631192e+03
2.702739479765921260e+03
2.643997941785843523e+03
2.698116510195754472e+03
2.698724562159648485e+03
2.700433363714707866e+03
2.707089273607928135e+03
2.648472158160972867e+03
2.705081622583177250e+03
2.705744674479525202e+03
2.706847485558575045e+03
2.712662992582448169e+03
2.653230199233146323e+03
2.711926623938426474e+03
2.712813138562619315e+03
2.713722184339194428e+03
2.719000055675227031e+03
2.660784101659282896e+03
2.717727522290495926e+03
2.715940275762548026e+03
2.715870880314777878e+03
2.720841023113288429e+03
2.663105574657652596e+03
2.716794881195779453e+03
2.712084220164565068e+03
2.711268927566643470e+03
2.716280716192673935e+03
2.655866038919432867e+03
2.705706387572270160e+03
2.699122818670256493e+03
2.698151534778504811e+03
2.703606071889104442e+03
2.669616807592396071e+03
2.653296706104948044e+03
2.650423115882957973e+03
2.664976236590211101e+03
2.677917975121913514e+03
2.670730715360267368e+03
2.654682859616630139e+03
2.652108206411198807e+03
2.666632959361817484e+03
2.679184194642821240e+03
2.671397778719373036e+03
2.655990209126315676e+03
2.653751727143574954e+03
2.668143001858320531e+03
2.680339362129547226e+03
2.672005088608598271e+03
2.657180402266522378e+03
2.655248906612662722e+03
2.669533869483125727e+03
2.681444074309560619e+03
2.672552645032460077e+03
2.658253438999344326e+03
2.656599744975489557e+03
2.670805562099224971e+03
2.682498331056692678e+03
2.673289051521325746e+03
2.659642198560959059e+03
2.658316824925450419e+03
2.672440440497958207e+03
2.683910954200916876e+03
2.674110569767316520e+03
2.661143314438555990e+03
2.660146101308358084e+03
2.674231592773043758e+03
2.685594395693025035e+03
2.674734072411296438e+03
2.662256113315444054e+03
2.661490232935656422e+03
2.675627583849229268e+03
2.687110504146323365e+03
2.680909947116002058e+03
2.668426833172644820e+03
2.668160169410466551e+03
2.681908772776915612e+03
2.692788027733584840e+03
2.686240916541308707e+03
2.673673498443980861e+03
2.673760495342566173e+03
2.686721085042841878e+03
2.696462783638838118e+03
2.690349291850286590e+03
2.677662425583521781e+03
2.677958173733715739e+03
2.689855856814979688e+03
2.698085635332379752e+03
2.693471841693899478e+03
2.680640085792813807e+03
2.681029471043857939e+03
2.691671381083377128e+03
2.698126051833954534e+03
2.695816719892888159e+03
2.682836452115901466e+03
2.683231308082911255e+03
2.692477326241355513e+03
2.696964044111408384e+03
2.697868886651912817e+03
2.684985596902046382e+03
2.685262027808414587e+03
2.695058043419591741e+03
2.699969263430996307e+03
2.701279271858041739e+03
2.687904220650799289e+03
2.687686729942653074e+03
2.698316154556861875e+03
2.704212512541221713e+03
2.705639161195776978e+03
2.691216663117231292e+03
2.690159672848082664e+03
2.701811423875053151e+03
2.709145390758214035e+03
2.710735715037015780e+03
2.694840571165390429e+03
2.692638750775584867e+03
2.705471465648423873e+03
2.714635632734490628e+03
2.712724819602874959e+03
2.697675112149395318e+03
2.695935935914124457e+03
2.710178799386685569e+03
2.720675320169656970e+03
2.709072147768794821e+03
2.695696187045936313e+03
2.695303414765784964e+03
2.710815716802460884e+03
2.721931925803204649e+03
2.698263578899088770e+03
2.687701702263622337e+03
2.689852359966701897e+03
2.706196004992246344e+03
2.716928656177376070e+03
SCALARS vs float
LOOKUP_TABLE default
2.905087548549191524e+03
3.242856062775645114e+03
3.420221482383954935e+03
3.497640837519126762e+03
3.535183778147698831e+03
2.939287677185621305e+03
3.262164931871869612e+03
3.423606542199921932e+03
3.492673462324288266e+03
3.526003479514618448e+03
2.990326885097827926e+03
3.294958638289011105e+03
3.435942720387399731e+03
3.492243752742436300e+03
3.516825469998760582e+03
3.035281150110369254e+03
3.324333910601418211e+03
3.447525097844977154e+03
3.492517342511334846e+03
3.509103782989564934e+03
3.074150476360688572e+03
3.350290750468321676e+03
3.458353673428233378e+03
3.493494231652412054e+03
3.502838418901115801e+03
3.121814588762614676e+03
3.383292283158655209e+03
3.473439935020748635e+03
3.496406971192814126e+03
3.496161614888598706e+03
3.167727406133348268e+03
3.417412098279424299e+03
3.491476367768410910e+03
3.502475069213627194e+03
3.491599865985761880e+03
3.193495032121617896e+03
3.440212440208596490e+03
3.507016252141161658e+03
3.510872909538085878e+03
3.491863249897980495e+03
3.168212140029635975e+03
3.421016204334857775e+03
3.497169281973121542e+03
3.510874971863584960e+03
3.503262619305321095e+03
3.140884955261994946e+03
3.400807692226889230e+03
3.486686460139776045e+03
3.509324976638468797e+03
3.511732659694252561e+03
3.116428788472996530e+03
3.383160104199437683e+03
3.477466111178600841e+03
3.506832625370150708e+03
3.516646248588295748e+03
3.094808341976695374e+03
3.367888571345487435e+03
3.469397045482380236e+03
3.503657855926292996e+03
3.518745569370781595e+03
3.073529450171721692e+03
3.353612502389294605e+03
3.462150157159842365e+03
3.500023504553507792e+03
3.518472571414199592e+03
3.060985038524849188e+03
3.353235089119638815e+03
3.468943591419437780e+03
3.505500625360444246e+03
3.516316560840825787e+03
3.049726452650053034e+03
3.354494212555317063e+03
3.477490491481250956e+03
3.512263645739861659e+03
3.514160550617770241e+03
3.038972083121060223e+03
3.356484666572440801e+03
3.486960371951745401e+03
3.519742050905661472e+03
3.512004264458067155e+03
3.035921823054587549e+03
3.361479014388823998e+03
3.496886135755609757e+03
3.527319687151039943e+03
3.509865422128870250e+03
3.054974033012358632e+03
3.375745431796902267e+03
3.505083277742332939e+03
3.531391496236492003e+03
3.508388136506694536e+03
3.070678463128978819e+03
3.383646220660578365e+03
3.504656775959089828e+03
3.527300175152240172e+03
3.501791854917493310e+03