# vtk DataFile Version 2.0
Velocity model
ASCII
DATASET UNSTRUCTURED_GRID
POINTS 8073 double
-5.72266084108e+05	-7.65190447404e+05	-7.00000000000e+04
-5.20138043016e+05	-7.66907085698e+05	-7.00000000000e+04
-4.68039705114e+05	-7.68458546665e+05	-7.00000000000e+04
-4.15968084440e+05	-7.69845338575e+05	-7.00000000000e+04
-3.63920199970e+05	-7.71067915204e+05	-7.00000000000e+04
-3.11893075065e+05	-7.72126676167e+05	-7.00000000000e+04
-2.59883736932e+05	-7.73021967210e+05	-7.00000000000e+04
-2.07889216073e+05	-7.73754080459e+05	-7.00000000000e+04
-1.55906545734e+05	-7.74323254640e+05	-7.00000000000e+04
-1.03932761363e+05	-7.74729675246e+05	-7.00000000000e+04
-5.19649000534e+04	-7.74973474676e+05	-7.00000000000e+04
0.00000000000e+00	-7.75054732333e+05	-7.00000000000e+04
5.19649000534e+04	-7.74973474676e+05	-7.00000000000e+04
1.03932761363e+05	-7.74729675246e+05	-7.00000000000e+04
1.55906545734e+05	-7.74323254640e+05	-7.00000000000e+04
2.07889216073e+05	-7.73754080459e+05	-7.00000000000e+04
2.59883736932e+05	-7.73021967210e+05	-7.00000000000e+04
3.11893075065e+05	-7.72126676167e+05	-7.00000000000e+04
3.63920199970e+05	-7.71067915204e+05	-7.00000000000e+04
4.15968084440e+05	-7.69845338575e+05	-7.00000000000e+04
4.68039705114e+05	-7.68458546665e+05	-7.00000000000e+04
5.20138043016e+05	-7.66907085698e+05	-7.00000000000e+04
5.72266084108e+05	-7.65190447404e+05	-7.00000000000e+04
-5.70328150574e+05	-7.09662827757e+05	-7.00000000000e+04
-5.18378287441e+05	-7.11412423773e+05	-7.00000000000e+04
-4.66457553088e+05	-7.12993685795e+05	-7.00000000000e+04
-4.14563020176e+05	-7.14407127437e+05	-7.00000000000e+04
-3.62691765927e+05	-7.15653207263e+05	-7.00000000000e+04
-3.10840871618e+05	-7.16732329110e+05	-7.00000000000e+04
-2.59007422082e+05	-7.17644842387e+05	-7.00000000000e+04
-2.07188505197e+05	-7.18391042324e+05	-7.00000000000e+04
-1.55381211382e+05	-7.18971170184e+05	-7.00000000000e+04
-1.03582633089e+05	-7.19385413435e+05	-7.00000000000e+04
-5.17898642965e+04	-7.19633905888e+05	-7.00000000000e+04
0.00000000000e+00	-7.19716727792e+05	-7.00000000000e+04
5.17898642965e+04	-7.19633905888e+05	-7.00000000000e+04
1.03582633089e+05	-7.19385413435e+05	-7.00000000000e+04
1.55381211382e+05	-7.18971170184e+05	-7.00000000000e+04
2.07188505197e+05	-7.18391042324e+05	-7.00000000000e+04
2.59007422082e+05	-7.17644842387e+05	-7.00000000000e+04
3.10840871618e+05	-7.16732329110e+05	-7.00000000000e+04
3.62691765927e+05	-7.15653207263e+05	-7.00000000000e+04
4.14563020176e+05	-7.14407127437e+05	-7.00000000000e+04
4.66457553088e+05	-7.12993685795e+05	-7.00000000000e+04
5.18378287441e+05	-7.11412423773e+05	-7.00000000000e+04
5.70328150574e+05	-7.09662827757e+05	-7.00000000000e+04
-5.68346795731e+05	-6.54134964979e+05	-7.00000000000e+04
-5.16579085224e+05	-6.55916982719e+05	-7.00000000000e+04
-4.64839921296e+05	-6.57527562192e+05	-7.00000000000e+04
-4.13126436008e+05	-6.58967221949e+05	-7.00000000000e+04
-3.61435765608e+05	-6.60236424976e+05	-7.00000000000e+04
-3.09765050069e+05	-6.61335579017e+05	-7.00000000000e+04
-2.58111432626e+05	-6.62265036872e+05	-7.00000000000e+04
-2.06472059313e+05	-6.63025096637e+05	-7.00000000000e+04
-1.54844078502e+05	-6.63616001926e+05	-7.00000000000e+04
-1.03224640429e+05	-6.64037942035e+05	-7.00000000000e+04
-5.16108967365e+04	-6.64291052080e+05	-7.00000000000e+04
0.00000000000e+00	-6.64375413094e+05	-7.00000000000e+04
5.16108967365e+04	-6.64291052080e+05	-7.00000000000e+04
1.03224640429e+05	-6.64037942035e+05	-7.00000000000e+04
1.54844078502e+05	-6.63616001926e+05	-7.00000000000e+04
2.06472059313e+05	-6.63025096637e+05	-7.00000000000e+04
2.58111432626e+05	-6.62265036872e+05	-7.00000000000e+04
3.09765050069e+05	-6.61335579017e+05	-7.00000000000e+04
3.61435765608e+05	-6.60236424976e+05	-7.00000000000e+04
4.13126436008e+05	-6.58967221949e+05	-7.00000000000e+04
4.64839921296e+05	-6.57527562192e+05	-7.00000000000e+04
5.16579085224e+05	-6.55916982719e+05	-7.00000000000e+04
5.68346795731e+05	-6.54134964979e+05	-7.00000000000e+04
-5.66322169978e+05	-5.98606854109e+05	-7.00000000000e+04
-5.14740571838e+05	-6.00420747698e+05	-7.00000000000e+04
-4.63186930645e+05	-6.02060152085e+05	-7.00000000000e+04
-4.11658438603e+05	-6.03525590351e+05	-7.00000000000e+04
-3.60152291726e+05	-6.04817529540e+05	-7.00000000000e+04
-3.08665689423e+05	-6.05936380987e+05	-7.00000000000e+04
-2.57195834077e+05	-6.06882500599e+05	-7.00000000000e+04
-2.05739930621e+05	-6.07656189113e+05	-7.00000000000e+04
-1.54295186120e+05	-6.08257692299e+05	-7.00000000000e+04
-1.02858809342e+05	-6.08687201133e+05	-7.00000000000e+04
-5.14280103351e+04	-6.08944851934e+05	-7.00000000000e+04
0.00000000000e+00	-6.09030726452e+05	-7.00000000000e+04
5.14280103351e+04	-6.08944851934e+05	-7.00000000000e+04
1.02858809342e+05	-6.08687201133e+05	-7.00000000000e+04
1.54295186120e+05	-6.08257692299e+05	-7.00000000000e+04
2.05739930621e+05	-6.07656189113e+05	-7.00000000000e+04
2.57195834077e+05	-6.06882500599e+05	-7.00000000000e+04
3.08665689423e+05	-6.05936380987e+05	-7.00000000000e+04
3.60152291726e+05	-6.04817529540e+05	-7.00000000000e+04
4.11658438603e+05	-6.03525590351e+05	-7.00000000000e+04
4.63186930645e+05	-6.02060152085e+05	-7.00000000000e+04
5.14740571838e+05	-6.00420747698e+05	-7.00000000000e+04
5.66322169978e+05	-5.98606854109e+05	-7.00000000000e+04
-5.64254427001e+05	-5.43078490238e+05	-7.00000000000e+04
-5.12862885729e+05	-5.44923704093e+05	-7.00000000000e+04
-4.61498704708e+05	-5.46591432076e+05	-7.00000000000e+04
-4.10159136987e+05	-5.48082201392e+05	-7.00000000000e+04
-3.58841439049e+05	-5.49396482781e+05	-7.00000000000e+04
-3.07542870446e+05	-5.50534690842e+05	-7.00000000000e+04
-2.56260693411e+05	-5.51497184320e+05	-7.00000000000e+04
-2.04992172487e+05	-5.52284266351e+05	-7.00000000000e+04
-1.53734574137e+05	-5.52896184674e+05	-7.00000000000e+04
-1.02485166369e+05	-5.53333131797e+05	-7.00000000000e+04
-5.12412183447e+04	-5.53595245133e+05	-7.00000000000e+04
0.00000000000e+00	-5.53682607090e+05	-7.00000000000e+04
5.12412183447e+04	-5.53595245133e+05	-7.00000000000e+04
1.02485166369e+05	-5.53333131797e+05	-7.00000000000e+04
1.53734574137e+05	-5.52896184674e+05	-7.00000000000e+04
2.04992172487e+05	-5.52284266351e+05	-7.00000000000e+04
2.56260693411e+05	-5.51497184320e+05	-7.00000000000e+04
3.07542870446e+05	-5.50534690842e+05	-7.00000000000e+04
3.58841439049e+05	-5.49396482781e+05	-7.00000000000e+04
4.10159136987e+05	-5.48082201392e+05	-7.00000000000e+04
4.61498704708e+05	-5.46591432076e+05	-7.00000000000e+04
5.12862885729e+05	-5.44923704093e+05	-7.00000000000e+04
5.64254427001e+05	-5.43078490238e+05	-7.00000000000e+04
-5.62143723760e+05	-4.87549868512e+05	-7.00000000000e+04
-5.10946168307e+05	-4.89425837509e+05	-7.00000000000e+04
-4.59775369715e+05	-4.91121379148e+05	-7.00000000000e+04
-4.08628642538e+05	-4.92637024343e+05	-7.00000000000e+04
-3.57503304399e+05	-4.93973247163e+05	-7.00000000000e+04
-3.06396675655e+05	-4.95130465153e+05	-7.00000000000e+04
-2.55306079062e+05	-4.96109039614e+05	-7.00000000000e+04
-2.04228839439e+05	-4.96909275852e+05	-7.00000000000e+04
-1.53162283323e+05	-4.97531423380e+05	-7.00000000000e+04
-1.02103738629e+05	-4.97975676089e+05	-7.00000000000e+04
-5.10505343075e+04	-4.98242172380e+05	-7.00000000000e+04
0.00000000000e+00	-4.98330995257e+05	-7.00000000000e+04
5.10505343075e+04	-4.98242172380e+05	-7.00000000000e+04
1.02103738629e+05	-4.97975676089e+05	-7.00000000000e+04
1.53162283323e+05	-4.97531423380e+05	-7.00000000000e+04
2.04228839439e+05	-4.96909275852e+05	-7.00000000000e+04
2.55306079062e+05	-4.96109039614e+05	-7.00000000000e+04
3.06396675655e+05	-4.95130465153e+05	-7.00000000000e+04
3.57503304399e+05	-4.93973247163e+05	-7.00000000000e+04
4.08628642538e+05	-4.92637024343e+05	-7.00000000000e+04
4.59775369715e+05	-4.91121379148e+05	-7.00000000000e+04
5.10946168307e+05	-4.89425837509e+05	-7.00000000000e+04
5.62143723760e+05	-4.87549868512e+05	-7.00000000000e+04
-5.59990220479e+05	-4.32020984128e+05	-7.00000000000e+04
-5.08990563938e+05	-4.33927133787e+05	-7.00000000000e+04
-4.58017054543e+05	-4.35649970672e+05	-7.00000000000e+04
-4.07067068982e+05	-4.37190028999e+05	-7.00000000000e+04
-3.56137986641e+05	-4.38547785800e+05	-7.00000000000e+04
-3.05227189316e+05	-4.39723661243e+05	-7.00000000000e+04
-2.54332060917e+05	-4.40718018908e+05	-7.00000000000e+04
-2.03449987170e+05	-4.41531166034e+05	-7.00000000000e+04
-1.52578355318e+05	-4.42163353717e+05	-7.00000000000e+04
-1.01714553822e+05	-4.42614777083e+05	-7.00000000000e+04
-5.08559720551e+04	-4.42885575416e+05	-7.00000000000e+04
0.00000000000e+00	-4.42975832247e+05	-7.00000000000e+04
5.08559720551e+04	-4.42885575416e+05	-7.00000000000e+04
1.01714553822e+05	-4.42614777083e+05	-7.00000000000e+04
1.52578355318e+05	-4.42163353717e+05	-7.00000000000e+04
2.03449987170e+05	-4.41531166034e+05	-7.00000000000e+04
2.54332060917e+05	-4.40718018908e+05	-7.00000000000e+04
3.05227189316e+05	-4.39723661243e+05	-7.00000000000e+04
3.56137986641e+05	-4.38547785800e+05	-7.00000000000e+04
4.07067068982e+05	-4.37190028999e+05	-7.00000000000e+04
4.58017054543e+05	-4.35649970672e+05	-7.00000000000e+04
5.08990563938e+05	-4.33927133787e+05	-7.00000000000e+04
5.59990220479e+05	-4.32020984128e+05	-7.00000000000e+04
-5.57794080635e+05	-3.76491832341e+05	-7.00000000000e+04
-5.06996219931e+05	-3.78427578999e+05	-7.00000000000e+04
-4.56223890710e+05	-3.80177184414e+05	-7.00000000000e+04
-4.05474532381e+05	-3.81741185693e+05	-7.00000000000e+04
-3.54745586683e+05	-3.83120062468e+05	-7.00000000000e+04
-3.04034497442e+05	-3.84314237205e+05	-7.00000000000e+04
-2.53338710314e+05	-3.85324075486e+05	-7.00000000000e+04
-2.02655672528e+05	-3.86149886247e+05	-7.00000000000e+04
-1.51982832631e+05	-3.86791921977e+05	-7.00000000000e+04
-1.01317640226e+05	-3.87250378886e+05	-7.00000000000e+04
-5.06575457078e+04	-3.87525397034e+05	-7.00000000000e+04
0.00000000000e+00	-3.87617060419e+05	-7.00000000000e+04
5.06575457078e+04	-3.87525397034e+05	-7.00000000000e+04
1.01317640226e+05	-3.87250378886e+05	-7.00000000000e+04
[...]
POINT_DATA 8073
SCALARS vp double 1
LOOKUP_TABLE default
7.943999999999999950e+00
7.939000000000000057e+00
7.878000000000000114e+00
7.817999999999999616e+00
7.790000000000000036e+00
7.762999999999999901e+00
7.698999999999999844e+00
7.666999999999999815e+00
7.615999999999999659e+00
7.578999999999999737e+00
7.551999999999999602e+00
7.527999999999999581e+00
7.500000000000000000e+00
7.480999999999999872e+00
7.455000000000000071e+00
7.451999999999999957e+00
7.410999999999999588e+00
7.384000000000000341e+00
7.368999999999999773e+00
7.357000000000000206e+00
7.347000000000000419e+00
7.339999999999999858e+00
7.333999999999999631e+00
7.897999999999999687e+00
7.900000000000000355e+00
7.865000000000000213e+00
7.812999999999999723e+00
7.766000000000000014e+00
7.746000000000000441e+00
7.711000000000000298e+00
7.674999999999999822e+00
7.623999999999999666e+00
7.560999999999999943e+00
7.541000000000000369e+00
7.543000000000000149e+00
7.479000000000000092e+00
7.500000000000000000e+00
7.453000000000000291e+00
7.467999999999999972e+00
7.437999999999999723e+00
7.415000000000000036e+00
7.405000000000000249e+00
7.427999999999999936e+00
7.392999999999999794e+00
7.397999999999999687e+00
7.368999999999999773e+00
7.844000000000000306e+00
7.836000000000000298e+00
7.812999999999999723e+00
7.782000000000000028e+00
7.743999999999999773e+00
7.721000000000000085e+00
7.682000000000000384e+00
7.573000000000000398e+00
7.538000000000000256e+00
7.532000000000000028e+00
7.517000000000000348e+00
7.479000000000000092e+00
7.495000000000000107e+00
7.490999999999999659e+00
7.506999999999999673e+00
7.463000000000000078e+00
7.437000000000000277e+00
7.448000000000000398e+00
7.474000000000000199e+00
7.498000000000000220e+00
7.437999999999999723e+00
7.437999999999999723e+00
7.426000000000000156e+00
7.798000000000000043e+00
7.780000000000000249e+00
7.764999999999999680e+00
7.751000000000000334e+00
7.719999999999999751e+00
7.722000000000000419e+00
7.647999999999999687e+00
7.581000000000000405e+00
7.527000000000000135e+00
7.503999999999999559e+00
7.520999999999999908e+00
7.498999999999999666e+00
7.509999999999999787e+00
7.491999999999999993e+00
7.458000000000000185e+00
7.477000000000000313e+00
7.488999999999999879e+00
7.514999999999999680e+00
7.535999999999999588e+00
7.586999999999999744e+00
7.500000000000000000e+00
7.490000000000000213e+00
7.485999999999999766e+00
7.735000000000000320e+00
7.719999999999999751e+00
7.714000000000000412e+00
7.693999999999999950e+00
7.689000000000000057e+00
7.698000000000000398e+00
7.647000000000000242e+00
7.554999999999999716e+00
7.511999999999999567e+00
7.467999999999999972e+00
7.474999999999999645e+00
7.500000000000000000e+00
7.536999999999999922e+00
7.511999999999999567e+00
7.514000000000000234e+00
7.509999999999999787e+00
7.551999999999999602e+00
7.562000000000000277e+00
7.607999999999999652e+00
7.695000000000000284e+00
7.573999999999999844e+00
7.565999999999999837e+00
7.557000000000000384e+00
7.644999999999999574e+00
7.676000000000000156e+00
7.677999999999999936e+00
7.673000000000000043e+00
7.673000000000000043e+00
7.650999999999999801e+00
7.634999999999999787e+00
7.552999999999999936e+00
7.512999999999999901e+00
7.445999999999999730e+00
7.434999999999999609e+00
7.522999999999999687e+00
7.631000000000000227e+00
7.633000000000000007e+00
7.546999999999999709e+00
7.596000000000000085e+00
7.658000000000000362e+00
7.703999999999999737e+00
7.727000000000000313e+00
7.799000000000000377e+00
7.647000000000000242e+00
7.642999999999999794e+00
7.641000000000000014e+00
7.576999999999999957e+00
7.628000000000000114e+00
7.620000000000000107e+00
7.642999999999999794e+00
7.628000000000000114e+00
7.650999999999999801e+00
7.594999999999999751e+00
7.549000000000000377e+00
7.544999999999999929e+00
7.508000000000000007e+00
7.506999999999999673e+00
7.604000000000000092e+00
7.700000000000000178e+00
7.668000000000000149e+00
7.634999999999999787e+00
7.721000000000000085e+00
7.774000000000000021e+00
7.812999999999999723e+00
7.796999999999999709e+00
7.857000000000000206e+00
7.730000000000000426e+00
7.724999999999999645e+00
7.724999999999999645e+00
7.541000000000000369e+00
7.554999999999999716e+00
7.584999999999999964e+00
7.488000000000000433e+00
7.560999999999999943e+00
7.592999999999999972e+00
7.615999999999999659e+00
7.583000000000000185e+00
7.639000000000000234e+00
7.564000000000000057e+00
7.575999999999999623e+00
7.679000000000000270e+00
7.751999999999999780e+00
7.713000000000000078e+00
7.722000000000000419e+00
7.806000000000000050e+00
7.862000000000000099e+00
7.929999999999999716e+00
7.903999999999999915e+00
7.975999999999999979e+00
7.817000000000000171e+00
7.809999999999999609e+00
7.815999999999999837e+00
7.479000000000000092e+00
7.490999999999999659e+00
7.568999999999999950e+00
7.434999999999999609e+00
7.477000000000000313e+00
7.556000000000000050e+00
7.641000000000000014e+00
7.665000000000000036e+00
7.681000000000000050e+00
7.673000000000000043e+00
7.653999999999999915e+00
7.775999999999999801e+00
7.785999999999999588e+00
7.750000000000000000e+00
7.785000000000000142e+00
7.857000000000000206e+00
7.924999999999999822e+00
8.006000000000000227e+00
7.987000000000000099e+00
8.029999999999999361e+00
7.889000000000000234e+00
7.900000000000000355e+00
7.894999999999999574e+00
7.466999999999999638e+00
7.459999999999999964e+00
7.509999999999999787e+00
7.467999999999999972e+00
7.469000000000000306e+00
7.591000000000000192e+00
7.722999999999999865e+00
7.730999999999999872e+00
7.676000000000000156e+00
7.727000000000000313e+00
7.814000000000000057e+00
7.910000000000000142e+00
7.870000000000000107e+00
7.802999999999999936e+00
7.863000000000000433e+00
7.860999999999999766e+00
7.940000000000000391e+00
8.026999999999999247e+00
8.035000000000000142e+00
8.066000000000000725e+00
8.089000000000000412e+00
7.977000000000000313e+00
7.980000000000000426e+00
7.427999999999999936e+00
7.442999999999999616e+00
7.491999999999999993e+00
7.530000000000000249e+00
7.419999999999999929e+00
7.586999999999999744e+00
7.785000000000000142e+00
7.741999999999999993e+00
7.668999999999999595e+00
7.753999999999999559e+00
7.903999999999999915e+00
7.918000000000000149e+00
7.916000000000000369e+00
7.834999999999999964e+00
7.847000000000000419e+00
7.908999999999999808e+00
7.995000000000000107e+00
8.144999999999999574e+00
8.169000000000000483e+00
8.189000000000000057e+00
8.166999999999999815e+00
8.048999999999999488e+00
8.051000000000000156e+00
7.413999999999999702e+00
7.435999999999999943e+00
7.467999999999999972e+00
7.520999999999999908e+00
7.480999999999999872e+00
7.663000000000000256e+00
7.793000000000000149e+00
7.796999999999999709e+00
7.788000000000000256e+00
7.902999999999999581e+00
7.996000000000000441e+00
7.844999999999999751e+00
7.985999999999999766e+00
7.844999999999999751e+00
7.841000000000000192e+00
7.969000000000000306e+00
8.038000000000000256e+00
8.179000000000000270e+00
8.173000000000000043e+00
8.157999999999999474e+00
8.173000000000000043e+00
8.115000000000000213e+00
8.121000000000000441e+00
7.421000000000000263e+00
7.432000000000000384e+00
7.466999999999999638e+00
7.517000000000000348e+00
7.567000000000000171e+00
7.708000000000000185e+00
7.825000000000000178e+00
7.921999999999999709e+00
7.953000000000000291e+00
7.971000000000000085e+00
7.959999999999999964e+00
7.858999999999999986e+00
8.006999999999999673e+00
7.945999999999999730e+00
7.860000000000000320e+00
7.980999999999999872e+00
8.044000000000000483e+00
8.173999999999999488e+00
8.196999999999999176e+00
8.186999999999999389e+00
8.134000000000000341e+00
8.172000000000000597e+00
8.179999999999999716e+00
7.416000000000000369e+00
7.434999999999999609e+00
7.464999999999999858e+00
7.761000000000000121e+00
7.700000000000000178e+00
7.685999999999999943e+00
7.701999999999999957e+00
7.697000000000000064e+00
7.969999999999999751e+00
7.852999999999999758e+00
7.817999999999999616e+00
7.903999999999999915e+00
8.144000000000000128e+00
7.956999999999999851e+00
8.025000000000000355e+00
8.135999999999999233e+00
8.246999999999999886e+00
8.253000000000000114e+00
8.224000000000000199e+00
8.205999999999999517e+00
8.221999999999999531e+00
8.221000000000000085e+00
8.230999999999999872e+00
7.411999999999999922e+00
7.424999999999999822e+00
7.487000000000000099e+00
7.597999999999999865e+00
7.544999999999999929e+00
7.616999999999999993e+00
7.652999999999999581e+00
7.679000000000000270e+00
7.790000000000000036e+00
7.778999999999999915e+00
7.669999999999999929e+00
7.871999999999999886e+00
8.089000000000000412e+00
8.233999999999999986e+00
8.137000000000000455e+00
8.083000000000000185e+00
8.342000000000000526e+00
8.289999999999999147e+00
8.198000000000000398e+00
8.228999999999999204e+00
8.332000000000000739e+00
8.262999999999999901e+00
8.273999999999999133e+00
7.418000000000000149e+00
7.203000000000000291e+00
7.240000000000000213e+00
7.411999999999999922e+00
7.442999999999999616e+00
7.636999999999999567e+00
7.597999999999999865e+00
7.434999999999999609e+00
7.519000000000000128e+00
7.677999999999999936e+00
7.649000000000000021e+00
7.722000000000000419e+00
7.993000000000000327e+00
8.195999999999999730e+00
8.099000000000000199e+00
8.070000000000000284e+00
8.237000000000000099e+00
8.178000000000000824e+00
8.253999999999999559e+00
8.336999999999999744e+00
8.414999999999999147e+00
8.294000000000000483e+00
8.305999999999999162e+00
7.389999999999999680e+00
7.120000000000000107e+00
7.131000000000000227e+00
7.235999999999999766e+00
7.419999999999999929e+00
7.615999999999999659e+00
7.604000000000000092e+00
7.480999999999999872e+00
7.493999999999999773e+00
7.637999999999999901e+00
7.774000000000000021e+00
7.658000000000000362e+00
7.924000000000000377e+00
8.144000000000000128e+00
8.201999999999999957e+00
8.172000000000000597e+00
8.076999999999999957e+00
8.223000000000000753e+00
8.263999999999999346e+00
8.384000000000000341e+00
8.438000000000000611e+00
8.319000000000000838e+00
8.332000000000000739e+00
7.342999999999999972e+00
7.125000000000000000e+00
7.118999999999999773e+00
7.221000000000000085e+00
7.248000000000000220e+00
7.416000000000000369e+00
7.588000000000000078e+00
7.583999999999999631e+00
7.519000000000000128e+00
7.544999999999999929e+00
7.594999999999999751e+00
7.828999999999999737e+00
8.034000000000000696e+00
8.265000000000000568e+00
8.365000000000000213e+00
8.228999999999999204e+00
8.053000000000000824e+00
8.250999999999999446e+00
8.282999999999999474e+00
8.429999999999999716e+00
8.419999999999999929e+00
8.330999999999999517e+00
8.346999999999999531e+00
7.373000000000000220e+00
7.131999999999999673e+00
7.184000000000000163e+00
7.203999999999999737e+00
7.248000000000000220e+00
7.357999999999999652e+00
7.626000000000000334e+00
7.616999999999999993e+00
7.620000000000000107e+00
7.666999999999999815e+00
7.616999999999999993e+00
7.873999999999999666e+00
8.448999999999999844e+00
8.326999999999999957e+00
8.250000000000000000e+00
8.180999999999999162e+00
8.134000000000000341e+00
8.170999999999999375e+00
8.196999999999999176e+00
8.319000000000000838e+00
8.375999999999999446e+00
8.339999999999999858e+00
8.352000000000000313e+00
7.283999999999999808e+00
7.083999999999999631e+00
7.192000000000000171e+00
7.350999999999999979e+00
7.439000000000000057e+00
7.498000000000000220e+00
7.631000000000000227e+00
7.600999999999999979e+00
7.575000000000000178e+00
7.597000000000000419e+00
7.472999999999999865e+00
7.411999999999999922e+00
8.073000000000000398e+00
8.435000000000000497e+00
8.227999999999999758e+00
8.246000000000000441e+00
8.186999999999999389e+00
8.069000000000000838e+00
8.134000000000000341e+00
8.272999999999999687e+00
8.351000000000000867e+00
8.336000000000000298e+00
8.352000000000000313e+00
6.985999999999999766e+00
7.078000000000000291e+00
7.198999999999999844e+00
7.362000000000000099e+00
7.504999999999999893e+00
7.559000000000000163e+00
7.581999999999999851e+00
7.511999999999999567e+00
7.527000000000000135e+00
7.628999999999999559e+00
7.628999999999999559e+00
7.448000000000000398e+00
7.669999999999999929e+00
8.346999999999999531e+00
8.390000000000000568e+00
8.330999999999999517e+00
8.253000000000000114e+00
8.132999999999999119e+00
8.166999999999999815e+00
8.259000000000000341e+00
8.278000000000000469e+00
8.324999999999999289e+00
8.340999999999999304e+00
7.317999999999999616e+00
7.222999999999999865e+00
7.291000000000000369e+00
7.408999999999999808e+00
7.477000000000000313e+00
7.464999999999999858e+00
7.482000000000000206e+00
7.490999999999999659e+00
7.511999999999999567e+00
7.586000000000000298e+00
7.511999999999999567e+00
7.474999999999999645e+00
7.679000000000000270e+00
8.095000000000000639e+00
8.489000000000000767e+00
8.444000000000000838e+00
8.400999999999999801e+00
8.263999999999999346e+00
8.250999999999999446e+00
8.298999999999999488e+00
8.271000000000000796e+00
8.307000000000000384e+00
8.323999999999999844e+00
7.347000000000000419e+00
7.413000000000000256e+00
7.413999999999999702e+00
7.386999999999999567e+00
7.384999999999999787e+00
7.490000000000000213e+00
7.341000000000000192e+00
7.399000000000000021e+00
7.576999999999999957e+00
7.592999999999999972e+00
7.589999999999999858e+00
7.501999999999999780e+00
7.629999999999999893e+00
7.754999999999999893e+00
8.150999999999999801e+00
8.372999999999999332e+00
8.377000000000000668e+00
8.329000000000000625e+00
8.265000000000000568e+00
8.348000000000000753e+00
8.268000000000000682e+00
8.287000000000000810e+00
8.304000000000000270e+00
7.304000000000000270e+00
7.139000000000000234e+00
7.282000000000000028e+00
7.341000000000000192e+00
7.416999999999999815e+00
7.450999999999999623e+00
7.493000000000000327e+00
7.357999999999999652e+00
7.490000000000000213e+00
7.506999999999999673e+00
7.525000000000000355e+00
7.573999999999999844e+00
7.543000000000000149e+00
7.578999999999999737e+00
7.783000000000000362e+00
8.105000000000000426e+00
8.282000000000000028e+00
8.244999999999999218e+00
8.278999999999999915e+00
8.417999999999999261e+00
8.496999999999999886e+00
8.263999999999999346e+00
8.282999999999999474e+00
7.206000000000000405e+00
6.945000000000000284e+00
7.336000000000000298e+00
7.368000000000000327e+00
7.383000000000000007e+00
7.429999999999999716e+00
7.485000000000000320e+00
7.522999999999999687e+00
7.376000000000000334e+00
7.538000000000000256e+00
7.698999999999999844e+00
7.482999999999999652e+00
7.525000000000000355e+00
7.506999999999999673e+00
7.511000000000000121e+00
7.820999999999999730e+00
8.089999999999999858e+00
8.119999999999999218e+00
8.199999999999999289e+00
8.349999999999999645e+00
8.303000000000000824e+00
8.242000000000000881e+00
8.260999999999999233e+00
7.274000000000000021e+00
7.291999999999999815e+00
7.331000000000000405e+00
7.344999999999999751e+00
7.383000000000000007e+00
7.435999999999999943e+00
7.477999999999999758e+00
7.525000000000000355e+00
7.586000000000000298e+00
7.652999999999999581e+00
7.714000000000000412e+00
7.770999999999999908e+00
7.443999999999999950e+00
7.541000000000000369e+00
7.602999999999999758e+00
7.772999999999999687e+00
7.934999999999999609e+00
8.039999999999999147e+00
8.137000000000000455e+00
8.163000000000000256e+00
8.196999999999999176e+00
8.224000000000000199e+00
8.242000000000000881e+00
7.277000000000000135e+00
7.293000000000000149e+00
7.312000000000000277e+00
7.347999999999999865e+00
7.386000000000000121e+00
7.429999999999999716e+00
7.471000000000000085e+00
7.520999999999999908e+00
7.581999999999999851e+00
7.639000000000000234e+00
7.708999999999999631e+00
7.764999999999999680e+00
7.817999999999999616e+00
7.878999999999999559e+00
7.932999999999999829e+00
7.900000000000000355e+00
8.025999999999999801e+00
8.070000000000000284e+00
8.111000000000000654e+00
8.150000000000000355e+00
8.182999999999999829e+00
8.210000000000000853e+00
8.230000000000000426e+00
8.381999999999999673e+00
8.352999999999999758e+00
8.291999999999999815e+00
8.217000000000000526e+00
8.159000000000000696e+00
8.103999999999999204e+00
8.025999999999999801e+00
7.977000000000000313e+00
7.919999999999999929e+00
7.879999999999999893e+00
7.849000000000000199e+00
7.823000000000000398e+00
7.799999999999999822e+00
7.778999999999999915e+00
7.761000000000000121e+00
7.730999999999999872e+00
7.729000000000000092e+00
7.724000000000000199e+00
7.708999999999999631e+00
7.692999999999999616e+00
7.681000000000000050e+00
7.669999999999999929e+00
7.661999999999999922e+00
8.346000000000000085e+00
8.320999999999999730e+00
8.273999999999999133e+00
8.204000000000000625e+00
8.132999999999999119e+00
8.082000000000000739e+00
8.025999999999999801e+00
7.972999999999999865e+00
7.918000000000000149e+00
7.873000000000000220e+00
7.831000000000000405e+00
7.820000000000000284e+00
7.775999999999999801e+00
7.783999999999999808e+00
7.783000000000000362e+00
7.788000000000000256e+00
7.809000000000000163e+00
7.801000000000000156e+00
7.782000000000000028e+00
7.775000000000000355e+00
7.700999999999999623e+00
7.641000000000000014e+00
7.687999999999999723e+00
8.294000000000000483e+00
8.268000000000000682e+00
8.223000000000000753e+00
8.166000000000000369e+00
8.102999999999999758e+00
8.054999999999999716e+00
7.996999999999999886e+00
7.897999999999999687e+00
7.850999999999999979e+00
7.838000000000000078e+00
7.804000000000000270e+00
7.754999999999999893e+00
7.762999999999999901e+00
7.783999999999999808e+00
7.772000000000000242e+00
7.796999999999999709e+00
7.801999999999999602e+00
7.793000000000000149e+00
7.804000000000000270e+00
7.820999999999999730e+00
7.738000000000000433e+00
7.695999999999999730e+00
7.706000000000000405e+00
8.237999999999999545e+00
8.205999999999999517e+00
8.166000000000000369e+00
8.121000000000000441e+00
8.063000000000000611e+00
8.061999999999999389e+00
7.964999999999999858e+00
7.892000000000000348e+00
7.826999999999999957e+00
7.794999999999999929e+00
7.804000000000000270e+00
7.777999999999999581e+00
7.766000000000000014e+00
7.761999999999999567e+00
7.778999999999999915e+00
7.810999999999999943e+00
7.825999999999999623e+00
7.838000000000000078e+00
7.825999999999999623e+00
7.897000000000000242e+00
7.785999999999999588e+00
7.759999999999999787e+00
7.758000000000000007e+00
8.160999999999999588e+00
8.131000000000000227e+00
8.099000000000000199e+00
8.060999999999999943e+00
8.026999999999999247e+00
8.006999999999999673e+00
7.931000000000000050e+00
7.833999999999999631e+00
7.780999999999999694e+00
7.737000000000000099e+00
7.751999999999999780e+00
7.767999999999999794e+00
7.791999999999999815e+00
7.801000000000000156e+00
7.786999999999999922e+00
7.799999999999999822e+00
7.820000000000000284e+00
7.838000000000000078e+00
7.858999999999999986e+00
7.969000000000000306e+00
7.798000000000000043e+00
7.801000000000000156e+00
7.810999999999999943e+00
8.064000000000000057e+00
8.057000000000000384e+00
8.032999999999999474e+00
8.016999999999999460e+00
8.021000000000000796e+00
7.977000000000000313e+00
7.935999999999999943e+00
7.833000000000000185e+00
7.780000000000000249e+00
7.703000000000000291e+00
7.732000000000000206e+00
7.791999999999999815e+00
7.905999999999999694e+00
7.892000000000000348e+00
7.796999999999999709e+00
7.852000000000000313e+00
7.897000000000000242e+00
7.891000000000000014e+00
7.939000000000000057e+00
8.022000000000000242e+00
7.855000000000000426e+00
7.857000000000000206e+00
7.855999999999999872e+00
7.972000000000000419e+00
7.974000000000000199e+00
7.956999999999999851e+00
8.054000000000000270e+00
7.985999999999999766e+00
8.003000000000000114e+00
7.879999999999999893e+00
7.866999999999999993e+00
7.809000000000000163e+00
7.785999999999999588e+00
7.892000000000000348e+00
7.929999999999999716e+00
8.009000000000000341e+00
7.945000000000000284e+00
7.868000000000000327e+00
7.988000000000000433e+00
8.000999999999999446e+00
8.034000000000000696e+00
8.028000000000000469e+00
8.092999999999999972e+00
7.900999999999999801e+00
7.910000000000000142e+00
7.910999999999999588e+00
7.886999999999999567e+00
7.879999999999999893e+00
7.847999999999999865e+00
7.780999999999999694e+00
7.892999999999999794e+00
7.929000000000000270e+00
7.956000000000000405e+00
8.023999999999999133e+00
7.940999999999999837e+00
8.034000000000000696e+00
8.038000000000000256e+00
8.019000000000000128e+00
8.109999999999999432e+00
8.071999999999999176e+00
7.974000000000000199e+00